 Entering Link 1 = C:\G09W\l1.exe PID=      3012.
  
 Copyright (c) 1988,1990,1992,1993,1995,1998,2003,2009, Gaussian, Inc.
                  All Rights Reserved.
  
 This is part of the Gaussian(R) 09 program.  It is based on
 the Gaussian(R) 03 system (copyright 2003, Gaussian, Inc.),
 the Gaussian(R) 98 system (copyright 1998, Gaussian, Inc.),
 the Gaussian(R) 94 system (copyright 1995, Gaussian, Inc.),
 the Gaussian 92(TM) system (copyright 1992, Gaussian, Inc.),
 the Gaussian 90(TM) system (copyright 1990, Gaussian, Inc.),
 the Gaussian 88(TM) system (copyright 1988, Gaussian, Inc.),
 the Gaussian 86(TM) system (copyright 1986, Carnegie Mellon
 University), and the Gaussian 82(TM) system (copyright 1983,
 Carnegie Mellon University). Gaussian is a federally registered
 trademark of Gaussian, Inc.
  
 This software contains proprietary and confidential information,
 including trade secrets, belonging to Gaussian, Inc.
  
 This software is provided under written license and may be
 used, copied, transmitted, or stored only in accord with that
 written license.
  
 The following legend is applicable only to US Government
 contracts under FAR:
  
                    RESTRICTED RIGHTS LEGEND
  
 Use, reproduction and disclosure by the US Government is
 subject to restrictions as set forth in subparagraphs (a)
 and (c) of the Commercial Computer Software - Restricted
 Rights clause in FAR 52.227-19.
  
 Gaussian, Inc.
 340 Quinnipiac St., Bldg. 40, Wallingford CT 06492
  
  
 ---------------------------------------------------------------
 Warning -- This program may not be used in any manner that
 competes with the business of Gaussian, Inc. or will provide
 assistance to any competitor of Gaussian, Inc.  The licensee
 of this program is prohibited from giving any competitor of
 Gaussian, Inc. access to this program.  By using this program,
 the user acknowledges that Gaussian, Inc. is engaged in the
 business of creating and licensing software in the field of
 computational chemistry and represents and warrants to the
 licensee that it is not a competitor of Gaussian, Inc. and that
 it will not use this program in any manner prohibited above.
 ---------------------------------------------------------------
  

 Cite this work as:
 Gaussian 09, Revision A.02,
 M. J. Frisch, G. W. Trucks, H. B. Schlegel, G. E. Scuseria, 
 M. A. Robb, J. R. Cheeseman, G. Scalmani, V. Barone, B. Mennucci, 
 G. A. Petersson, H. Nakatsuji, M. Caricato, X. Li, H. P. Hratchian, 
 A. F. Izmaylov, J. Bloino, G. Zheng, J. L. Sonnenberg, M. Hada, 
 M. Ehara, K. Toyota, R. Fukuda, J. Hasegawa, M. Ishida, T. Nakajima, 
 Y. Honda, O. Kitao, H. Nakai, T. Vreven, J. A. Montgomery, Jr., 
 J. E. Peralta, F. Ogliaro, M. Bearpark, J. J. Heyd, E. Brothers, 
 K. N. Kudin, V. N. Staroverov, R. Kobayashi, J. Normand, 
 K. Raghavachari, A. Rendell, J. C. Burant, S. S. Iyengar, J. Tomasi, 
 M. Cossi, N. Rega, J. M. Millam, M. Klene, J. E. Knox, J. B. Cross, 
 V. Bakken, C. Adamo, J. Jaramillo, R. Gomperts, R. E. Stratmann, 
 O. Yazyev, A. J. Austin, R. Cammi, C. Pomelli, J. W. Ochterski, 
 R. L. Martin, K. Morokuma, V. G. Zakrzewski, G. A. Voth, 
 P. Salvador, J. J. Dannenberg, S. Dapprich, A. D. Daniels, 
 O. Farkas, J. B. Foresman, J. V. Ortiz, J. Cioslowski, 
 and D. J. Fox, Gaussian, Inc., Wallingford CT, 2009.
 
 ******************************************
 Gaussian 09:  IA32W-G09RevA.02 11-Jun-2009
                06-Nov-2024 
 ******************************************
 %chk=C:\Users\melih\Desktop\Gaussian\H2ClCCClH2\energy123.chk
 ---------------------------------------------
 # opt=modredundant hf/3-21g geom=connectivity
 ---------------------------------------------
 1/18=120,19=15,38=1,57=2/1,3;
 2/9=110,12=2,17=6,18=5,40=1/2;
 3/5=5,11=9,16=1,25=1,30=1,71=1/1,2,3;
 4//1;
 5/5=2,38=5/2;
 6/7=2,8=2,9=2,10=2,28=1/1;
 7//1,2,3,16;
 1/18=20,19=15/3(2);
 2/9=110/2;
 99//99;
 2/9=110/2;
 3/5=5,11=9,16=1,25=1,30=1,71=1/1,2,3;
 4/5=5,16=3/1;
 5/5=2,38=5/2;
 7//1,2,3,16;
 1/18=20,19=15/3(-5);
 2/9=110/2;
 6/7=2,8=2,9=2,10=2,19=2,28=1/1;
 99/9=1/99;
 -------------------
 Title Card Required
 -------------------
 Symbolic Z-matrix:
 Charge =  0 Multiplicity = 1
 C                     1.42857   0.09317   0. 
 H                     1.78523  -0.78054   0.50432 
 H                     1.78524   0.09326  -1.00881 
 C                    -0.11143   0.09319   0. 
 H                    -0.46809   0.09329  -1.00881 
 H                    -0.46811  -0.78051   0.50432 
 Cl                   -0.69808   1.53015   0.82981 
 Cl                    2.01526   1.53011   0.82981 
 
 The following ModRedundant input section has been read:
 D    8    1    4    7 S  36 10.000                                            

 GradGradGradGradGradGradGradGradGradGradGradGradGradGradGradGradGradGrad
 Berny optimization.
 Initialization pass.
                           ----------------------------
                           !    Initial Parameters    !
                           ! (Angstroms and Degrees)  !
 --------------------------                            --------------------------
 ! Name  Definition              Value          Derivative Info.                !
 --------------------------------------------------------------------------------
 ! R1    R(1,2)                  1.07           estimate D2E/DX2                !
 ! R2    R(1,3)                  1.07           estimate D2E/DX2                !
 ! R3    R(1,4)                  1.54           estimate D2E/DX2                !
 ! R4    R(1,8)                  1.76           estimate D2E/DX2                !
 ! R5    R(4,5)                  1.07           estimate D2E/DX2                !
 ! R6    R(4,6)                  1.07           estimate D2E/DX2                !
 ! R7    R(4,7)                  1.76           estimate D2E/DX2                !
 ! A1    A(2,1,3)              109.4712         estimate D2E/DX2                !
 ! A2    A(2,1,4)              109.4712         estimate D2E/DX2                !
 ! A3    A(2,1,8)              109.4712         estimate D2E/DX2                !
 ! A4    A(3,1,4)              109.4712         estimate D2E/DX2                !
 ! A5    A(3,1,8)              109.4713         estimate D2E/DX2                !
 ! A6    A(4,1,8)              109.4712         estimate D2E/DX2                !
 ! A7    A(1,4,5)              109.4712         estimate D2E/DX2                !
 ! A8    A(1,4,6)              109.4712         estimate D2E/DX2                !
 ! A9    A(1,4,7)              109.4712         estimate D2E/DX2                !
 ! A10   A(5,4,6)              109.4712         estimate D2E/DX2                !
 ! A11   A(5,4,7)              109.4713         estimate D2E/DX2                !
 ! A12   A(6,4,7)              109.4712         estimate D2E/DX2                !
 ! D1    D(2,1,4,5)           -120.0            estimate D2E/DX2                !
 ! D2    D(2,1,4,6)              0.0            estimate D2E/DX2                !
 ! D3    D(2,1,4,7)            120.0            estimate D2E/DX2                !
 ! D4    D(3,1,4,5)              0.0            estimate D2E/DX2                !
 ! D5    D(3,1,4,6)            120.0            estimate D2E/DX2                !
 ! D6    D(3,1,4,7)           -120.0            estimate D2E/DX2                !
 ! D7    D(8,1,4,5)            120.0            estimate D2E/DX2                !
 ! D8    D(8,1,4,6)           -120.0            estimate D2E/DX2                !
 ! D9    D(8,1,4,7)              0.0            Scan                            !
 --------------------------------------------------------------------------------
 Trust Radius=3.00D-01 FncErr=1.00D-07 GrdErr=1.00D-07
 Number of optimizations in scan=  37
 Number of steps in this run=  38 maximum allowed number of steps= 100.
 GradGradGradGradGradGradGradGradGradGradGradGradGradGradGradGradGradGrad

                          Input orientation:                          
 ---------------------------------------------------------------------
 Center     Atomic      Atomic             Coordinates (Angstroms)
 Number     Number       Type             X           Y           Z
 ---------------------------------------------------------------------
      1          6           0        1.428571    0.093168    0.000000
      2          1           0        1.785228   -0.780537    0.504318
      3          1           0        1.785238    0.093261   -1.008806
      4          6           0       -0.111429    0.093187    0.000000
      5          1           0       -0.468095    0.093289   -1.008806
      6          1           0       -0.468106   -0.780509    0.504318
      7         17           0       -0.698077    1.530148    0.829812
      8         17           0        2.015256    1.530114    0.829811
 ---------------------------------------------------------------------
                    Distance matrix (angstroms):
                    1          2          3          4          5
     1  C    0.000000
     2  H    1.070000   0.000000
     3  H    1.070000   1.747302   0.000000
     4  C    1.540000   2.148263   2.148263   0.000000
     5  H    2.148263   2.851417   2.253333   1.070000   0.000000
     6  H    2.148263   2.253334   2.851417   1.070000   1.747303
     7  Cl   2.697431   3.407640   3.407640   1.760000   2.344775
     8  Cl   1.760000   2.344774   2.344775   2.697431   3.407640
                    6          7          8
     6  H    0.000000
     7  Cl   2.344774   0.000000
     8  Cl   3.407640   2.713333   0.000000
 Stoichiometry    C2H4Cl2
 Framework group  C2V[SGV(C2Cl2),X(H4)]
 Deg. of freedom     6
 Full point group                 C2V     NOp   4
 Largest Abelian subgroup         C2V     NOp   4
 Largest concise Abelian subgroup C2V     NOp   4
                         Standard orientation:                         
 ---------------------------------------------------------------------
 Center     Atomic      Atomic             Coordinates (Angstroms)
 Number     Number       Type             X           Y           Z
 ---------------------------------------------------------------------
      1          6           0        0.000000    0.770000    1.088002
      2          1           0       -0.873651    1.126667    1.592404
      3          1           0        0.873651    1.126667    1.592404
      4          6           0        0.000000   -0.770000    1.088002
      5          1           0        0.873651   -1.126667    1.592404
      6          1           0       -0.873651   -1.126667    1.592404
      7         17           0        0.000000   -1.356666   -0.571342
      8         17           0        0.000000    1.356666   -0.571342
 ---------------------------------------------------------------------
 Rotational constants (GHZ):      7.8994881      3.3436218      2.4184350
 Standard basis: 3-21G (6D, 7F)
 There are    19 symmetry adapted basis functions of A1  symmetry.
 There are     7 symmetry adapted basis functions of A2  symmetry.
 There are     7 symmetry adapted basis functions of B1  symmetry.
 There are    19 symmetry adapted basis functions of B2  symmetry.
 Integral buffers will be    262144 words long.
 Raffenetti 1 integral format.
 Two-electron integral symmetry is turned on.
    52 basis functions,    96 primitive gaussians,    52 cartesian basis functions
    25 alpha electrons       25 beta electrons
       nuclear repulsion energy       215.2245562644 Hartrees.
 NAtoms=    8 NActive=    8 NUniq=    3 SFac= 3.00D+00 NAtFMM=   80 NAOKFM=F Big=F
 One-electron integrals computed using PRISM.
 NBasis=    52 RedAO= T  NBF=    19     7     7    19
 NBsUse=    52 1.00D-06 NBFU=    19     7     7    19
 Harris functional with IExCor=  205 diagonalized for initial guess.
 ExpMin= 1.67D-01 ExpMax= 1.38D+03 ExpMxC= 1.38D+03 IAcc=1 IRadAn=         1 AccDes= 0.00D+00
 HarFok:  IExCor=  205 AccDes= 0.00D+00 IRadAn=         1 IDoV= 1
 ScaDFX=  1.000000  1.000000  1.000000  1.000000
 FoFCou: FMM=F IPFlag=           0 FMFlag=      100000 FMFlg1=           0
         NFxFlg=           0 DoJE=T BraDBF=F KetDBF=T FulRan=T
         Omega=  0.000000  0.000000  1.000000  0.000000  0.000000 ICntrl=     500 IOpCl=  0
         NMat0=    1 NMatS0=    1 NMatT0=    0 NMatD0=    1 NMtDS0=    0 NMtDT0=    0
         I1Cent=           4 NGrid=           0.
 Petite list used in FoFCou.
 Initial guess orbital symmetries:
       Occupied  (B2) (A1) (B2) (A1) (B2) (A1) (B2) (A1) (A1) (B2)
                 (A2) (B1) (A1) (B2) (A1) (B2) (B1) (A1) (A1) (A2)
                 (B2) (A1) (B1) (A2) (B2)
       Virtual   (A1) (B2) (A1) (B1) (B2) (B2) (A2) (A1) (B2) (B1)
                 (A1) (B2) (A1) (A2) (A1) (B1) (A1) (B2) (B2) (B2)
                 (A2) (B1) (A1) (A2) (B2) (A1) (B2)
 The electronic state of the initial guess is 1-A1.
 Requested convergence on RMS density matrix=1.00D-08 within 128 cycles.
 Requested convergence on MAX density matrix=1.00D-06.
 Requested convergence on             energy=1.00D-06.
 No special actions if energy rises.
 Keep R1 ints in memory in canonical form, NReq=1777147.
 SCF Done:  E(RHF) =  -992.185039896     A.U. after   11 cycles
             Convg  =    0.1627D-08             -V/T =  2.0002

 **********************************************************************

            Population analysis using the SCF density.

 **********************************************************************

 Orbital symmetries:
       Occupied  (B2) (A1) (B2) (A1) (B2) (A1) (B2) (A1) (A1) (B2)
                 (A2) (B1) (A1) (B2) (A1) (B2) (B1) (A1) (A2) (A1)
                 (B2) (A1) (B1) (A2) (B2)
       Virtual   (A1) (A1) (B1) (B2) (B2) (A2) (B2) (A1) (B2) (B1)
                 (A1) (B2) (A2) (A1) (B1) (A1) (A1) (B2) (B2) (B2)
                 (A2) (B1) (A1) (A2) (B2) (A1) (B2)
 The electronic state is 1-A1.
 Alpha  occ. eigenvalues -- -104.09319-104.09282 -11.25696 -11.25661 -10.49072
 Alpha  occ. eigenvalues --  -10.48953  -7.95389  -7.95371  -7.94929  -7.94922
 Alpha  occ. eigenvalues --   -7.94907  -7.94887  -1.20594  -1.11904  -0.99356
 Alpha  occ. eigenvalues --   -0.84764  -0.70540  -0.65747  -0.59207  -0.57510
 Alpha  occ. eigenvalues --   -0.52081  -0.46874  -0.46047  -0.42309  -0.40697
 Alpha virt. eigenvalues --    0.16182   0.23884   0.25438   0.26022   0.34829
 Alpha virt. eigenvalues --    0.37040   0.37088   0.69237   0.76194   0.76219
 Alpha virt. eigenvalues --    0.81177   0.85271   0.86149   0.87377   0.91911
 Alpha virt. eigenvalues --    0.94394   0.98707   0.98922   1.09401   1.14595
 Alpha virt. eigenvalues --    1.17051   1.28686   1.30072   1.33631   1.38999
 Alpha virt. eigenvalues --    1.91045   2.34227
          Condensed to atoms (all electrons):
              1          2          3          4          5          6
     1  C    5.855291   0.366783   0.366783   0.065446  -0.040747  -0.040747
     2  H    0.366783   0.447577  -0.022205  -0.040747   0.002001  -0.002948
     3  H    0.366783  -0.022205   0.447577  -0.040747  -0.002948   0.002001
     4  C    0.065446  -0.040747  -0.040747   5.855291   0.366783   0.366783
     5  H   -0.040747   0.002001  -0.002948   0.366783   0.447577  -0.022205
     6  H   -0.040747  -0.002948   0.002001   0.366783  -0.022205   0.447577
     7  Cl  -0.098354   0.002826   0.002826   0.163028  -0.043020  -0.043020
     8  Cl   0.163028  -0.043020  -0.043020  -0.098354   0.002826   0.002826
              7          8
     1  C   -0.098354   0.163028
     2  H    0.002826  -0.043020
     3  H    0.002826  -0.043020
     4  C    0.163028  -0.098354
     5  H   -0.043020   0.002826
     6  H   -0.043020   0.002826
     7  Cl  17.052456  -0.094756
     8  Cl  -0.094756  17.052456
 Mulliken atomic charges:
              1
     1  C   -0.637482
     2  H    0.289734
     3  H    0.289734
     4  C   -0.637482
     5  H    0.289734
     6  H    0.289734
     7  Cl   0.058015
     8  Cl   0.058015
 Sum of Mulliken atomic charges =   0.00000
 Mulliken charges with hydrogens summed into heavy atoms:
              1
     1  C   -0.058015
     4  C   -0.058015
     7  Cl   0.058015
     8  Cl   0.058015
 Sum of Mulliken charges with hydrogens summed into heavy atoms =   0.00000
 Electronic spatial extent (au):  <R**2>=            491.1974
 Charge=              0.0000 electrons
 Dipole moment (field-independent basis, Debye):
    X=              0.0000    Y=              0.0000    Z=              3.9115  Tot=              3.9115
 Quadrupole moment (field-independent basis, Debye-Ang):
   XX=            -38.2718   YY=            -42.9015   ZZ=            -35.4425
   XY=              0.0000   XZ=              0.0000   YZ=              0.0000
 Traceless Quadrupole moment (field-independent basis, Debye-Ang):
   XX=              0.6002   YY=             -4.0296   ZZ=              3.4294
   XY=              0.0000   XZ=              0.0000   YZ=              0.0000
 Octapole moment (field-independent basis, Debye-Ang**2):
  XXX=              0.0000  YYY=              0.0000  ZZZ=             -1.8601  XYY=              0.0000
  XXY=              0.0000  XXZ=              2.7519  XZZ=              0.0000  YZZ=              0.0000
  YYZ=              3.8617  XYZ=              0.0000
 Hexadecapole moment (field-independent basis, Debye-Ang**3):
 XXXX=            -51.8743 YYYY=           -406.4106 ZZZZ=           -194.2486 XXXY=              0.0000
 XXXZ=              0.0000 YYYX=              0.0000 YYYZ=              0.0000 ZZZX=              0.0000
 ZZZY=              0.0000 XXYY=            -72.7022 XXZZ=            -38.4817 YYZZ=            -90.9808
 XXYZ=              0.0000 YYXZ=              0.0000 ZZXY=              0.0000
 N-N= 2.152245562644D+02 E-N=-2.790058884664D+03  KE= 9.919600415094D+02
 Symmetry A1   KE= 4.489896550041D+02
 Symmetry A2   KE= 4.770245356916D+01
 Symmetry B1   KE= 4.702491962350D+01
 Symmetry B2   KE= 4.482430133126D+02
 Calling FoFJK, ICntrl=      2127 FMM=F ISym2X=1 I1Cent= 0 IOpClX= 0 NMat=1 NMatS=1 NMatT=0.
 ***** Axes restored to original set *****
 -------------------------------------------------------------------
 Center     Atomic                   Forces (Hartrees/Bohr)
 Number     Number              X              Y              Z
 -------------------------------------------------------------------
      1        6          -0.018085717   -0.033240345   -0.019195754
      2        1           0.005299627   -0.000610389    0.003669413
      3        1           0.005299670    0.002873037   -0.002362704
      4        6           0.018084898   -0.033240791   -0.019195754
      5        1          -0.005299599    0.002873168   -0.002362704
      6        1          -0.005299642   -0.000610258    0.003669413
      7       17          -0.062565090    0.030978560    0.017889045
      8       17           0.062565854    0.030977018    0.017889046
 -------------------------------------------------------------------
 Cartesian Forces:  Max     0.062565854 RMS     0.024287200

 GradGradGradGradGradGradGradGradGradGradGradGradGradGradGradGradGradGrad
 Berny optimization.
 Internal  Forces:  Max     0.113954864 RMS     0.039669816
 Search for a local minimum.
 Step number   1 out of a maximum of   38 on scan point     1 out of    37
 All quantities printed in internal units (Hartrees-Bohrs-Radians)
 Mixed Optimization -- RFO/linear search
 Second derivative matrix not updated -- first step.
     Eigenvalues ---    0.01756   0.05720   0.05976   0.05976   0.16000
     Eigenvalues ---    0.16000   0.16000   0.16000   0.22461   0.22461
     Eigenvalues ---    0.28519   0.29539   0.29539   0.37230   0.37230
     Eigenvalues ---    0.37230   0.372301000.000001000.000001000.00000
     Eigenvalues --- 1000.000001000.000001000.000001000.000001000.00000
     Eigenvalues --- 1000.000001000.000001000.00000
 RFO step:  Lambda=-1.23626798D-01 EMin= 1.75617051D-02
 Linear search not attempted -- first point.
 Maximum step size (   0.300) exceeded in Quadratic search.
    -- Step size scaled by   0.506
 Iteration  1 RMS(Cart)=  0.14470718 RMS(Int)=  0.01035198
 Iteration  2 RMS(Cart)=  0.01616352 RMS(Int)=  0.00067395
 Iteration  3 RMS(Cart)=  0.00020376 RMS(Int)=  0.00065829
 Iteration  4 RMS(Cart)=  0.00000008 RMS(Int)=  0.00065829
 Iteration  1 RMS(Cart)=  0.00000000 RMS(Int)=  0.00000000
 ClnCor:  largest displacement from symmetrization is 1.02D-08 for atom     6.
 Variable       Old X    -DE/DX   Delta X   Delta X   Delta X     New X
                                 (Linear)    (Quad)   (Total)
    R1        2.02201   0.00399   0.00000   0.00407   0.00407   2.02608
    R2        2.02201   0.00399   0.00000   0.00407   0.00407   2.02608
    R3        2.91018   0.05508   0.00000   0.06814   0.06814   2.97831
    R4        3.32592   0.05458   0.00000   0.06588   0.06588   3.39179
    R5        2.02201   0.00399   0.00000   0.00407   0.00407   2.02608
    R6        2.02201   0.00399   0.00000   0.00407   0.00407   2.02608
    R7        3.32592   0.05458   0.00000   0.06588   0.06588   3.39179
    A1        1.91063  -0.00163   0.00000  -0.01282  -0.01341   1.89723
    A2        1.91063  -0.01359   0.00000  -0.02004  -0.02100   1.88963
    A3        1.91063  -0.04257   0.00000  -0.05762  -0.05872   1.85191
    A4        1.91063  -0.01359   0.00000  -0.02004  -0.02100   1.88963
    A5        1.91063  -0.04257   0.00000  -0.05762  -0.05872   1.85191
    A6        1.91063   0.11395   0.00000   0.16814   0.16696   2.07759
    A7        1.91063  -0.01359   0.00000  -0.02004  -0.02100   1.88963
    A8        1.91063  -0.01359   0.00000  -0.02004  -0.02100   1.88963
    A9        1.91063   0.11395   0.00000   0.16814   0.16696   2.07759
   A10        1.91063  -0.00163   0.00000  -0.01282  -0.01341   1.89723
   A11        1.91063  -0.04257   0.00000  -0.05762  -0.05872   1.85191
   A12        1.91063  -0.04257   0.00000  -0.05762  -0.05872   1.85191
    D1       -2.09440   0.01864   0.00000   0.04024   0.04045  -2.05394
    D2        0.00000   0.00000   0.00000   0.00000   0.00000   0.00000
    D3        2.09439   0.00932   0.00000   0.02012   0.02023   2.11462
    D4        0.00000   0.00000   0.00000   0.00000   0.00000   0.00000
    D5        2.09440  -0.01864   0.00000  -0.04024  -0.04045   2.05394
    D6       -2.09439  -0.00932   0.00000  -0.02012  -0.02023  -2.11462
    D7        2.09439   0.00932   0.00000   0.02012   0.02023   2.11462
    D8       -2.09439  -0.00932   0.00000  -0.02012  -0.02023  -2.11462
    D9        0.00000   0.00000   0.00000   0.00000   0.00000   0.00000
         Item               Value     Threshold  Converged?
 Maximum Force            0.113955     0.000450     NO 
 RMS     Force            0.040398     0.000300     NO 
 Maximum Displacement     0.571740     0.001800     NO 
 RMS     Displacement     0.156857     0.001200     NO 
 Predicted change in Energy=-5.230362D-02
 GradGradGradGradGradGradGradGradGradGradGradGradGradGradGradGradGradGrad

                          Input orientation:                          
 ---------------------------------------------------------------------
 Center     Atomic      Atomic             Coordinates (Angstroms)
 Number     Number       Type             X           Y           Z
 ---------------------------------------------------------------------
      1          6           0        1.446600    0.122365    0.016861
      2          1           0        1.782666   -0.769521    0.507898
      3          1           0        1.782676    0.101868   -1.001054
      4          6           0       -0.129456    0.122384    0.016861
      5          1           0       -0.465533    0.101896   -1.001054
      6          1           0       -0.465544   -0.769493    0.507898
      7         17           0       -1.000629    1.481331    0.801619
      8         17           0        2.317806    1.481291    0.801619
 ---------------------------------------------------------------------
                    Distance matrix (angstroms):
                    1          2          3          4          5
     1  C    0.000000
     2  H    1.072156   0.000000
     3  H    1.072156   1.742485   0.000000
     4  C    1.576056   2.166292   2.166292   0.000000
     5  H    2.166292   2.844415   2.248209   1.072156   0.000000
     6  H    2.166292   2.248209   2.844415   1.072156   1.742485
     7  Cl   2.907157   3.591564   3.591564   1.794861   2.332123
     8  Cl   1.794861   2.332123   2.332123   2.907157   3.591564
                    6          7          8
     6  H    0.000000
     7  Cl   2.332123   0.000000
     8  Cl   3.591564   3.318435   0.000000
 Stoichiometry    C2H4Cl2
 Framework group  C2V[SGV(C2Cl2),X(H4)]
 Deg. of freedom     6
 Full point group                 C2V     NOp   4
 Largest Abelian subgroup         C2V     NOp   4
 Largest concise Abelian subgroup C2V     NOp   4
                         Standard orientation:                         
 ---------------------------------------------------------------------
 Center     Atomic      Atomic             Coordinates (Angstroms)
 Number     Number       Type             X           Y           Z
 ---------------------------------------------------------------------
      1          6           0        0.000000    0.788028    1.024949
      2          1           0       -0.871243    1.124105    1.551738
      3          1           0        0.871243    1.124105    1.551738
      4          6           0        0.000000   -0.788028    1.024949
      5          1           0        0.871243   -1.124105    1.551738
      6          1           0       -0.871243   -1.124105    1.551738
      7         17           0        0.000000   -1.659217   -0.544304
      8         17           0        0.000000    1.659217   -0.544304
 ---------------------------------------------------------------------
 Rotational constants (GHZ):      8.6881812      2.3440977      1.8882443
 Standard basis: 3-21G (6D, 7F)
 There are    19 symmetry adapted basis functions of A1  symmetry.
 There are     7 symmetry adapted basis functions of A2  symmetry.
 There are     7 symmetry adapted basis functions of B1  symmetry.
 There are    19 symmetry adapted basis functions of B2  symmetry.
 Integral buffers will be    262144 words long.
 Raffenetti 1 integral format.
 Two-electron integral symmetry is turned on.
    52 basis functions,    96 primitive gaussians,    52 cartesian basis functions
    25 alpha electrons       25 beta electrons
       nuclear repulsion energy       200.0586007508 Hartrees.
 NAtoms=    8 NActive=    8 NUniq=    3 SFac= 3.00D+00 NAtFMM=   80 NAOKFM=F Big=F
 One-electron integrals computed using PRISM.
 NBasis=    52 RedAO= T  NBF=    19     7     7    19
 NBsUse=    52 1.00D-06 NBFU=    19     7     7    19
 Initial guess read from the read-write file.
 B after Tr=     0.000000    0.000000    0.000000
         Rot=    1.000000    0.000000    0.000000    0.000000 Ang=   0.00 deg.
 Initial guess orbital symmetries:
       Occupied  (B2) (A1) (B2) (A1) (B2) (A1) (B2) (A1) (A1) (B2)
                 (A2) (B1) (A1) (B2) (A1) (B2) (B1) (A1) (A2) (A1)
                 (B2) (A1) (B1) (A2) (B2)
       Virtual   (A1) (A1) (B1) (B2) (B2) (A2) (B2) (A1) (B2) (B1)
                 (A1) (B2) (A2) (A1) (B1) (A1) (A1) (B2) (B2) (B2)
                 (A2) (B1) (A1) (A2) (B2) (A1) (B2)
 Harris functional with IExCor=  205 diagonalized for initial guess.
 ExpMin= 1.67D-01 ExpMax= 1.38D+03 ExpMxC= 1.38D+03 IAcc=1 IRadAn=         1 AccDes= 0.00D+00
 HarFok:  IExCor=  205 AccDes= 0.00D+00 IRadAn=         1 IDoV= 1
 ScaDFX=  1.000000  1.000000  1.000000  1.000000
 FoFCou: FMM=F IPFlag=           0 FMFlag=      100000 FMFlg1=           0
         NFxFlg=           0 DoJE=T BraDBF=F KetDBF=T FulRan=T
         Omega=  0.000000  0.000000  1.000000  0.000000  0.000000 ICntrl=     500 IOpCl=  0
         NMat0=    1 NMatS0=    1 NMatT0=    0 NMatD0=    1 NMtDS0=    0 NMtDT0=    0
         I1Cent=           4 NGrid=           0.
 Petite list used in FoFCou.
 Requested convergence on RMS density matrix=1.00D-08 within 128 cycles.
 Requested convergence on MAX density matrix=1.00D-06.
 Requested convergence on             energy=1.00D-06.
 No special actions if energy rises.
 Keep R1 ints in memory in canonical form, NReq=1777147.
 SCF Done:  E(RHF) =  -992.204854646     A.U. after   12 cycles
             Convg  =    0.9576D-09             -V/T =  2.0006
 Calling FoFJK, ICntrl=      2127 FMM=F ISym2X=1 I1Cent= 0 IOpClX= 0 NMat=1 NMatS=1 NMatT=0.
 ***** Axes restored to original set *****
 -------------------------------------------------------------------
 Center     Atomic                   Forces (Hartrees/Bohr)
 Number     Number              X              Y              Z
 -------------------------------------------------------------------
      1        6          -0.026856375   -0.023433071   -0.013532315
      2        1           0.001524025   -0.001121456    0.002103373
      3        1           0.001524055    0.001261230   -0.002022634
      4        6           0.026855798   -0.023433733   -0.013532315
      5        1          -0.001524024    0.001261268   -0.002022634
      6        1          -0.001524053   -0.001121418    0.002103373
      7       17          -0.007801247    0.023293686    0.013451576
      8       17           0.007801821    0.023293494    0.013451576
 -------------------------------------------------------------------
 Cartesian Forces:  Max     0.026856375 RMS     0.013704946

 GradGradGradGradGradGradGradGradGradGradGradGradGradGradGradGradGradGrad
 Berny optimization.
 Using GEDIIS/GDIIS optimizer.
 Internal  Forces:  Max     0.027304269 RMS     0.009468679
 Search for a local minimum.
 Step number   2 out of a maximum of   38 on scan point     1 out of    37
 All quantities printed in internal units (Hartrees-Bohrs-Radians)
 Mixed Optimization -- RFO/linear search
 Update second derivatives using D2CorX and points    1    2
 DE= -1.98D-02 DEPred=-5.23D-02 R= 3.79D-01
 Trust test= 3.79D-01 RLast= 3.00D-01 DXMaxT set to 3.00D-01
 Use linear search instead of GDIIS.
     Eigenvalues ---    0.01384   0.04679   0.06025   0.06184   0.16000
     Eigenvalues ---    0.16000   0.16000   0.16039   0.22370   0.27636
     Eigenvalues ---    0.27849   0.29539   0.37206   0.37230   0.37230
     Eigenvalues ---    0.37230   0.788491000.000001000.000001000.00000
     Eigenvalues --- 1000.000001000.000001000.000001000.000001000.00000
     Eigenvalues --- 1000.000001000.000001000.00000
 RFO step:  Lambda=-6.18528891D-03 EMin= 1.38393603D-02
 Quartic linear search produced a step of -0.17908.
 Iteration  1 RMS(Cart)=  0.04024293 RMS(Int)=  0.00082656
 Iteration  2 RMS(Cart)=  0.00170326 RMS(Int)=  0.00021796
 Iteration  3 RMS(Cart)=  0.00000122 RMS(Int)=  0.00021796
 Iteration  4 RMS(Cart)=  0.00000000 RMS(Int)=  0.00021796
 Iteration  1 RMS(Cart)=  0.00000000 RMS(Int)=  0.00000000
 ClnCor:  largest displacement from symmetrization is 3.19D-08 for atom     6.
 Variable       Old X    -DE/DX   Delta X   Delta X   Delta X     New X
                                 (Linear)    (Quad)   (Total)
    R1        2.02608   0.00237  -0.00073   0.00671   0.00598   2.03206
    R2        2.02608   0.00237  -0.00073   0.00671   0.00598   2.03206
    R3        2.97831  -0.01601  -0.01220  -0.02103  -0.03323   2.94508
    R4        3.39179   0.02730  -0.01180   0.09781   0.08601   3.47781
    R5        2.02608   0.00237  -0.00073   0.00671   0.00598   2.03206
    R6        2.02608   0.00237  -0.00073   0.00671   0.00598   2.03206
    R7        3.39179   0.02730  -0.01180   0.09781   0.08601   3.47781
    A1        1.89723  -0.00045   0.00240   0.02026   0.02211   1.91934
    A2        1.88963   0.00428   0.00376   0.01420   0.01778   1.90741
    A3        1.85191   0.00450   0.01052  -0.01674  -0.00607   1.84584
    A4        1.88963   0.00428   0.00376   0.01420   0.01778   1.90741
    A5        1.85191   0.00450   0.01052  -0.01674  -0.00607   1.84584
    A6        2.07759  -0.01634  -0.02990  -0.01271  -0.04245   2.03515
    A7        1.88963   0.00428   0.00376   0.01420   0.01778   1.90741
    A8        1.88963   0.00428   0.00376   0.01420   0.01778   1.90741
    A9        2.07759  -0.01634  -0.02990  -0.01271  -0.04245   2.03515
   A10        1.89723  -0.00045   0.00240   0.02026   0.02211   1.91934
   A11        1.85191   0.00450   0.01052  -0.01674  -0.00607   1.84584
   A12        1.85191   0.00450   0.01052  -0.01674  -0.00607   1.84584
    D1       -2.05394  -0.00414  -0.00724  -0.03954  -0.04717  -2.10111
    D2        0.00000   0.00000   0.00000   0.00000   0.00000   0.00000
    D3        2.11462  -0.00207  -0.00362  -0.01977  -0.02358   2.09104
    D4        0.00000   0.00000   0.00000   0.00000   0.00000   0.00000
    D5        2.05394   0.00414   0.00724   0.03954   0.04717   2.10111
    D6       -2.11462   0.00207   0.00362   0.01977   0.02358  -2.09104
    D7        2.11462  -0.00207  -0.00362  -0.01977  -0.02358   2.09104
    D8       -2.11462   0.00207   0.00362   0.01977   0.02358  -2.09104
    D9        0.00000   0.00000   0.00000   0.00000   0.00000   0.00000
         Item               Value     Threshold  Converged?
 Maximum Force            0.027304     0.000450     NO 
 RMS     Force            0.009642     0.000300     NO 
 Maximum Displacement     0.105420     0.001800     NO 
 RMS     Displacement     0.041461     0.001200     NO 
 Predicted change in Energy=-3.349983D-03
 GradGradGradGradGradGradGradGradGradGradGradGradGradGradGradGradGradGrad

                          Input orientation:                          
 ---------------------------------------------------------------------
 Center     Atomic      Atomic             Coordinates (Angstroms)
 Number     Number       Type             X           Y           Z
 ---------------------------------------------------------------------
      1          6           0        1.437807    0.096220    0.001763
      2          1           0        1.792966   -0.781117    0.512111
      3          1           0        1.792977    0.099722   -1.013203
      4          6           0       -0.120664    0.096239    0.001763
      5          1           0       -0.475834    0.099749   -1.013203
      6          1           0       -0.475844   -0.781089    0.512111
      7         17           0       -0.944843    1.521218    0.824653
      8         17           0        2.262021    1.521179    0.824653
 ---------------------------------------------------------------------
                    Distance matrix (angstroms):
                    1          2          3          4          5
     1  C    0.000000
     2  H    1.075320   0.000000
     3  H    1.075320   1.761380   0.000000
     4  C    1.558471   2.166146   2.166146   0.000000
     5  H    2.166146   2.872275   2.268810   1.075320   0.000000
     6  H    2.166146   2.268810   2.872275   1.075320   1.761380
     7  Cl   2.895650   3.590825   3.590825   1.840376   2.370287
     8  Cl   1.840376   2.370287   2.370287   2.895650   3.590825
                    6          7          8
     6  H    0.000000
     7  Cl   2.370287   0.000000
     8  Cl   3.590825   3.206864   0.000000
 Stoichiometry    C2H4Cl2
 Framework group  C2V[SGV(C2Cl2),X(H4)]
 Deg. of freedom     6
 Full point group                 C2V     NOp   4
 Largest Abelian subgroup         C2V     NOp   4
 Largest concise Abelian subgroup C2V     NOp   4
                         Standard orientation:                         
 ---------------------------------------------------------------------
 Center     Atomic      Atomic             Coordinates (Angstroms)
 Number     Number       Type             X           Y           Z
 ---------------------------------------------------------------------
      1          6           0        0.000000    0.779236    1.078581
      2          1           0       -0.880690    1.134405    1.583113
      3          1           0        0.880690    1.134405    1.583113
      4          6           0        0.000000   -0.779236    1.078581
      5          1           0        0.880690   -1.134405    1.583113
      6          1           0       -0.880690   -1.134405    1.583113
      7         17           0        0.000000   -1.603432   -0.566924
      8         17           0        0.000000    1.603432   -0.566924
 ---------------------------------------------------------------------
 Rotational constants (GHZ):      8.0126981      2.4932745      1.9473929
 Standard basis: 3-21G (6D, 7F)
 There are    19 symmetry adapted basis functions of A1  symmetry.
 There are     7 symmetry adapted basis functions of A2  symmetry.
 There are     7 symmetry adapted basis functions of B1  symmetry.
 There are    19 symmetry adapted basis functions of B2  symmetry.
 Integral buffers will be    262144 words long.
 Raffenetti 1 integral format.
 Two-electron integral symmetry is turned on.
    52 basis functions,    96 primitive gaussians,    52 cartesian basis functions
    25 alpha electrons       25 beta electrons
       nuclear repulsion energy       200.1632153991 Hartrees.
 NAtoms=    8 NActive=    8 NUniq=    3 SFac= 3.00D+00 NAtFMM=   80 NAOKFM=F Big=F
 One-electron integrals computed using PRISM.
 NBasis=    52 RedAO= T  NBF=    19     7     7    19
 NBsUse=    52 1.00D-06 NBFU=    19     7     7    19
 Initial guess read from the read-write file.
 B after Tr=     0.000000    0.000000    0.000000
         Rot=    1.000000    0.000000    0.000000    0.000000 Ang=   0.00 deg.
 Initial guess orbital symmetries:
       Occupied  (B2) (A1) (B2) (A1) (B2) (A1) (B2) (A1) (B2) (A2)
                 (B1) (A1) (A1) (B2) (A1) (B2) (B1) (A1) (A2) (A1)
                 (B2) (B1) (B2) (A1) (A2)
       Virtual   (A1) (A1) (B2) (B1) (B2) (B2) (A2) (A1) (B2) (B1)
                 (A1) (A1) (B2) (A2) (B1) (A1) (B2) (A1) (B2) (A2)
                 (B2) (B1) (A1) (A2) (B2) (A1) (B2)
 Harris functional with IExCor=  205 diagonalized for initial guess.
 ExpMin= 1.67D-01 ExpMax= 1.38D+03 ExpMxC= 1.38D+03 IAcc=1 IRadAn=         1 AccDes= 0.00D+00
 HarFok:  IExCor=  205 AccDes= 0.00D+00 IRadAn=         1 IDoV= 1
 ScaDFX=  1.000000  1.000000  1.000000  1.000000
 FoFCou: FMM=F IPFlag=           0 FMFlag=      100000 FMFlg1=           0
         NFxFlg=           0 DoJE=T BraDBF=F KetDBF=T FulRan=T
         Omega=  0.000000  0.000000  1.000000  0.000000  0.000000 ICntrl=     500 IOpCl=  0
         NMat0=    1 NMatS0=    1 NMatT0=    0 NMatD0=    1 NMtDS0=    0 NMtDT0=    0
         I1Cent=           4 NGrid=           0.
 Petite list used in FoFCou.
 Requested convergence on RMS density matrix=1.00D-08 within 128 cycles.
 Requested convergence on MAX density matrix=1.00D-06.
 Requested convergence on             energy=1.00D-06.
 No special actions if energy rises.
 Keep R1 ints in memory in canonical form, NReq=1777147.
 SCF Done:  E(RHF) =  -992.209814628     A.U. after   10 cycles
             Convg  =    0.4536D-08             -V/T =  2.0008
 Calling FoFJK, ICntrl=      2127 FMM=F ISym2X=1 I1Cent= 0 IOpClX= 0 NMat=1 NMatS=1 NMatT=0.
 ***** Axes restored to original set *****
 -------------------------------------------------------------------
 Center     Atomic                   Forces (Hartrees/Bohr)
 Number     Number              X              Y              Z
 -------------------------------------------------------------------
      1        6          -0.013864861   -0.010403327   -0.006007809
      2        1           0.001723923    0.001597429    0.000369544
      3        1           0.001723917    0.001118505    0.001198877
      4        6           0.013864604   -0.010403669   -0.006007809
      5        1          -0.001723890    0.001118548    0.001198877
      6        1          -0.001723884    0.001597471    0.000369544
      7       17          -0.003906897    0.007687569    0.004439388
      8       17           0.003907087    0.007687473    0.004439388
 -------------------------------------------------------------------
 Cartesian Forces:  Max     0.013864861 RMS     0.006068694

 GradGradGradGradGradGradGradGradGradGradGradGradGradGradGradGradGradGrad
 Berny optimization.
 Using GEDIIS/GDIIS optimizer.
 Internal  Forces:  Max     0.009687007 RMS     0.003242637
 Search for a local minimum.
 Step number   3 out of a maximum of   38 on scan point     1 out of    37
 All quantities printed in internal units (Hartrees-Bohrs-Radians)
 Mixed Optimization -- RFO/linear search
 Update second derivatives using D2CorX and points    1    2    3
 DE= -4.96D-03 DEPred=-3.35D-03 R= 1.48D+00
 SS=  1.41D+00  RLast= 1.69D-01 DXNew= 5.0454D-01 5.0833D-01
 Trust test= 1.48D+00 RLast= 1.69D-01 DXMaxT set to 5.05D-01
 Use linear search instead of GDIIS.
     Eigenvalues ---    0.01482   0.04967   0.05159   0.05855   0.15104
     Eigenvalues ---    0.16000   0.16000   0.16000   0.22372   0.26039
     Eigenvalues ---    0.28125   0.29539   0.37230   0.37230   0.37230
     Eigenvalues ---    0.37959   0.611511000.000001000.000001000.00000
     Eigenvalues --- 1000.000001000.000001000.000001000.000001000.00000
     Eigenvalues --- 1000.000001000.000001000.00000
 RFO step:  Lambda=-6.51006481D-04 EMin= 1.48187663D-02
 Quartic linear search produced a step of  0.51593.
 Iteration  1 RMS(Cart)=  0.02447792 RMS(Int)=  0.00081373
 Iteration  2 RMS(Cart)=  0.00059800 RMS(Int)=  0.00057478
 Iteration  3 RMS(Cart)=  0.00000037 RMS(Int)=  0.00057478
 Iteration  1 RMS(Cart)=  0.00000000 RMS(Int)=  0.00000000
 ClnCor:  largest displacement from symmetrization is 9.39D-09 for atom     6.
 Variable       Old X    -DE/DX   Delta X   Delta X   Delta X     New X
                                 (Linear)    (Quad)   (Total)
    R1        2.03206  -0.00056   0.00309  -0.00527  -0.00219   2.02987
    R2        2.03206  -0.00056   0.00309  -0.00527  -0.00219   2.02987
    R3        2.94508  -0.00651  -0.01714  -0.01225  -0.02940   2.91569
    R4        3.47781   0.00969   0.04438   0.00754   0.05191   3.52972
    R5        2.03206  -0.00056   0.00309  -0.00527  -0.00219   2.02987
    R6        2.03206  -0.00056   0.00309  -0.00527  -0.00219   2.02987
    R7        3.47781   0.00969   0.04438   0.00754   0.05191   3.52972
    A1        1.91934  -0.00142   0.01141  -0.00098   0.00892   1.92826
    A2        1.90741   0.00284   0.00917   0.01949   0.02793   1.93534
    A3        1.84584  -0.00094  -0.00313  -0.02224  -0.02520   1.82065
    A4        1.90741   0.00284   0.00917   0.01949   0.02793   1.93534
    A5        1.84584  -0.00094  -0.00313  -0.02224  -0.02520   1.82065
    A6        2.03515  -0.00267  -0.02190   0.00402  -0.01769   2.01745
    A7        1.90741   0.00284   0.00917   0.01949   0.02793   1.93534
    A8        1.90741   0.00284   0.00917   0.01949   0.02793   1.93534
    A9        2.03515  -0.00267  -0.02190   0.00402  -0.01769   2.01745
   A10        1.91934  -0.00142   0.01141  -0.00098   0.00892   1.92826
   A11        1.84584  -0.00094  -0.00313  -0.02224  -0.02520   1.82065
   A12        1.84584  -0.00094  -0.00313  -0.02224  -0.02520   1.82065
    D1       -2.10111  -0.00173  -0.02433  -0.02261  -0.04783  -2.14894
    D2        0.00000   0.00000   0.00000   0.00000   0.00000   0.00000
    D3        2.09104  -0.00087  -0.01217  -0.01131  -0.02391   2.06712
    D4        0.00000   0.00000   0.00000   0.00000   0.00000   0.00000
    D5        2.10111   0.00173   0.02433   0.02261   0.04783   2.14894
    D6       -2.09104   0.00087   0.01217   0.01131   0.02391  -2.06712
    D7        2.09104  -0.00087  -0.01217  -0.01131  -0.02391   2.06712
    D8       -2.09104   0.00087   0.01217   0.01131   0.02391  -2.06712
    D9        0.00000   0.00000   0.00000   0.00000   0.00000   0.00000
         Item               Value     Threshold  Converged?
 Maximum Force            0.009687     0.000450     NO 
 RMS     Force            0.003302     0.000300     NO 
 Maximum Displacement     0.047539     0.001800     NO 
 RMS     Displacement     0.024303     0.001200     NO 
 Predicted change in Energy=-9.623022D-04
 GradGradGradGradGradGradGradGradGradGradGradGradGradGradGradGradGradGrad

                          Input orientation:                          
 ---------------------------------------------------------------------
 Center     Atomic      Atomic             Coordinates (Angstroms)
 Number     Number       Type             X           Y           Z
 ---------------------------------------------------------------------
      1          6           0        1.430029    0.076225   -0.009784
      2          1           0        1.812982   -0.778948    0.515433
      3          1           0        1.812993    0.103682   -1.012985
      4          6           0       -0.112886    0.076244   -0.009784
      5          1           0       -0.495849    0.103710   -1.012985
      6          1           0       -0.495860   -0.778920    0.515433
      7         17           0       -0.919686    1.535083    0.832660
      8         17           0        2.236865    1.535044    0.832660
 ---------------------------------------------------------------------
                    Distance matrix (angstroms):
                    1          2          3          4          5
     1  C    0.000000
     2  H    1.074163   0.000000
     3  H    1.074163   1.764963   0.000000
     4  C    1.542915   2.171675   2.171675   0.000000
     5  H    2.171675   2.906173   2.308842   1.074163   0.000000
     6  H    2.171675   2.308842   2.906173   1.074163   1.764963
     7  Cl   2.891218   3.594836   3.594836   1.867847   2.373788
     8  Cl   1.867847   2.373788   2.373788   2.891218   3.594836
                    6          7          8
     6  H    0.000000
     7  Cl   2.373788   0.000000
     8  Cl   3.594836   3.156551   0.000000
 Stoichiometry    C2H4Cl2
 Framework group  C2V[SGV(C2Cl2),X(H4)]
 Deg. of freedom     6
 Full point group                 C2V     NOp   4
 Largest Abelian subgroup         C2V     NOp   4
 Largest concise Abelian subgroup C2V     NOp   4
                         Standard orientation:                         
 ---------------------------------------------------------------------
 Center     Atomic      Atomic             Coordinates (Angstroms)
 Number     Number       Type             X           Y           Z
 ---------------------------------------------------------------------
      1          6           0        0.000000    0.771457    1.107300
      2          1           0       -0.882482    1.154421    1.585203
      3          1           0        0.882482    1.154421    1.585203
      4          6           0        0.000000   -0.771457    1.107300
      5          1           0        0.882482   -1.154421    1.585203
      6          1           0       -0.882482   -1.154421    1.585203
      7         17           0        0.000000   -1.578275   -0.577306
      8         17           0        0.000000    1.578275   -0.577306
 ---------------------------------------------------------------------
 Rotational constants (GHZ):      7.7222102      2.5652847      1.9728043
 Standard basis: 3-21G (6D, 7F)
 There are    19 symmetry adapted basis functions of A1  symmetry.
 There are     7 symmetry adapted basis functions of A2  symmetry.
 There are     7 symmetry adapted basis functions of B1  symmetry.
 There are    19 symmetry adapted basis functions of B2  symmetry.
 Integral buffers will be    262144 words long.
 Raffenetti 1 integral format.
 Two-electron integral symmetry is turned on.
    52 basis functions,    96 primitive gaussians,    52 cartesian basis functions
    25 alpha electrons       25 beta electrons
       nuclear repulsion energy       200.1916671876 Hartrees.
 NAtoms=    8 NActive=    8 NUniq=    3 SFac= 3.00D+00 NAtFMM=   80 NAOKFM=F Big=F
 One-electron integrals computed using PRISM.
 NBasis=    52 RedAO= T  NBF=    19     7     7    19
 NBsUse=    52 1.00D-06 NBFU=    19     7     7    19
 Initial guess read from the read-write file.
 B after Tr=     0.000000    0.000000    0.000000
         Rot=    1.000000    0.000000    0.000000    0.000000 Ang=   0.00 deg.
 Initial guess orbital symmetries:
       Occupied  (B2) (A1) (B2) (A1) (B2) (A1) (B2) (A1) (B2) (A2)
                 (B1) (A1) (A1) (B2) (A1) (B2) (B1) (A1) (A2) (A1)
                 (B2) (B1) (A1) (B2) (A2)
       Virtual   (A1) (B2) (A1) (B1) (B2) (B2) (A2) (A1) (B2) (B1)
                 (A1) (A1) (B2) (A2) (B1) (A1) (B2) (A1) (B2) (A2)
                 (B2) (B1) (A1) (A2) (B2) (A1) (B2)
 Harris functional with IExCor=  205 diagonalized for initial guess.
 ExpMin= 1.67D-01 ExpMax= 1.38D+03 ExpMxC= 1.38D+03 IAcc=1 IRadAn=         1 AccDes= 0.00D+00
 HarFok:  IExCor=  205 AccDes= 0.00D+00 IRadAn=         1 IDoV= 1
 ScaDFX=  1.000000  1.000000  1.000000  1.000000
 FoFCou: FMM=F IPFlag=           0 FMFlag=      100000 FMFlg1=           0
         NFxFlg=           0 DoJE=T BraDBF=F KetDBF=T FulRan=T
         Omega=  0.000000  0.000000  1.000000  0.000000  0.000000 ICntrl=     500 IOpCl=  0
         NMat0=    1 NMatS0=    1 NMatT0=    0 NMatD0=    1 NMtDS0=    0 NMtDT0=    0
         I1Cent=           4 NGrid=           0.
 Petite list used in FoFCou.
 Requested convergence on RMS density matrix=1.00D-08 within 128 cycles.
 Requested convergence on MAX density matrix=1.00D-06.
 Requested convergence on             energy=1.00D-06.
 No special actions if energy rises.
 Keep R1 ints in memory in canonical form, NReq=1777147.
 SCF Done:  E(RHF) =  -992.210808400     A.U. after   10 cycles
             Convg  =    0.3328D-08             -V/T =  2.0008
 Calling FoFJK, ICntrl=      2127 FMM=F ISym2X=1 I1Cent= 0 IOpClX= 0 NMat=1 NMatS=1 NMatT=0.
 ***** Axes restored to original set *****
 -------------------------------------------------------------------
 Center     Atomic                   Forces (Hartrees/Bohr)
 Number     Number              X              Y              Z
 -------------------------------------------------------------------
      1        6          -0.003531642   -0.001237466   -0.000714636
      2        1          -0.000138882   -0.000210254   -0.000214047
      3        1          -0.000138883   -0.000290482   -0.000075119
      4        6           0.003531611   -0.001237553   -0.000714636
      5        1           0.000138876   -0.000290485   -0.000075119
      6        1           0.000138877   -0.000210257   -0.000214047
      7       17          -0.002582074    0.001738280    0.001003803
      8       17           0.002582116    0.001738217    0.001003803
 -------------------------------------------------------------------
 Cartesian Forces:  Max     0.003531642 RMS     0.001455721

 GradGradGradGradGradGradGradGradGradGradGradGradGradGradGradGradGradGrad
 Berny optimization.
 Using GEDIIS/GDIIS optimizer.
 Internal  Forces:  Max     0.003922990 RMS     0.001480649
 Search for a local minimum.
 Step number   4 out of a maximum of   38 on scan point     1 out of    37
 All quantities printed in internal units (Hartrees-Bohrs-Radians)
 Mixed Optimization -- RFO/linear search
 Update second derivatives using D2CorX and points    1    2    3    4
 DE= -9.94D-04 DEPred=-9.62D-04 R= 1.03D+00
 SS=  1.41D+00  RLast= 1.40D-01 DXNew= 8.4853D-01 4.1979D-01
 Trust test= 1.03D+00 RLast= 1.40D-01 DXMaxT set to 5.05D-01
 Use linear search instead of GDIIS.
     Eigenvalues ---    0.01511   0.05051   0.05268   0.05540   0.15037
     Eigenvalues ---    0.16000   0.16000   0.16000   0.21356   0.22294
     Eigenvalues ---    0.29039   0.29539   0.37230   0.37230   0.37230
     Eigenvalues ---    0.37975   0.681391000.000001000.000001000.00000
     Eigenvalues --- 1000.000001000.000001000.000001000.000001000.00000
     Eigenvalues --- 1000.000001000.000001000.00000
 RFO step:  Lambda=-1.47214145D-04 EMin= 1.51085361D-02
 Quartic linear search produced a step of  0.03924.
 Iteration  1 RMS(Cart)=  0.00645074 RMS(Int)=  0.00002601
 Iteration  2 RMS(Cart)=  0.00003140 RMS(Int)=  0.00001970
 Iteration  3 RMS(Cart)=  0.00000000 RMS(Int)=  0.00001970
 Iteration  1 RMS(Cart)=  0.00000000 RMS(Int)=  0.00000000
 ClnCor:  largest displacement from symmetrization is 5.13D-09 for atom     8.
 Variable       Old X    -DE/DX   Delta X   Delta X   Delta X     New X
                                 (Linear)    (Quad)   (Total)
    R1        2.02987   0.00001  -0.00009  -0.00034  -0.00042   2.02945
    R2        2.02987   0.00001  -0.00009  -0.00034  -0.00042   2.02945
    R3        2.91569  -0.00123  -0.00115  -0.01041  -0.01156   2.90412
    R4        3.52972   0.00293   0.00204   0.00889   0.01093   3.54064
    R5        2.02987   0.00001  -0.00009  -0.00034  -0.00042   2.02945
    R6        2.02987   0.00001  -0.00009  -0.00034  -0.00042   2.02945
    R7        3.52972   0.00293   0.00204   0.00889   0.01093   3.54064
    A1        1.92826   0.00016   0.00035  -0.00148  -0.00118   1.92708
    A2        1.93534  -0.00089   0.00110  -0.00284  -0.00177   1.93357
    A3        1.82065  -0.00117  -0.00099   0.00017  -0.00081   1.81984
    A4        1.93534  -0.00089   0.00110  -0.00284  -0.00177   1.93357
    A5        1.82065  -0.00117  -0.00099   0.00017  -0.00081   1.81984
    A6        2.01745   0.00392  -0.00069   0.00700   0.00632   2.02377
    A7        1.93534  -0.00089   0.00110  -0.00284  -0.00177   1.93357
    A8        1.93534  -0.00089   0.00110  -0.00284  -0.00177   1.93357
    A9        2.01745   0.00392  -0.00069   0.00700   0.00632   2.02377
   A10        1.92826   0.00016   0.00035  -0.00148  -0.00118   1.92708
   A11        1.82065  -0.00117  -0.00099   0.00017  -0.00081   1.81984
   A12        1.82065  -0.00117  -0.00099   0.00017  -0.00081   1.81984
    D1       -2.14894   0.00105  -0.00188   0.00590   0.00399  -2.14495
    D2        0.00000   0.00000   0.00000   0.00000   0.00000   0.00000
    D3        2.06712   0.00052  -0.00094   0.00295   0.00199   2.06912
    D4        0.00000   0.00000   0.00000   0.00000   0.00000   0.00000
    D5        2.14894  -0.00105   0.00188  -0.00590  -0.00399   2.14495
    D6       -2.06712  -0.00052   0.00094  -0.00295  -0.00199  -2.06912
    D7        2.06712   0.00052  -0.00094   0.00295   0.00199   2.06912
    D8       -2.06712  -0.00052   0.00094  -0.00295  -0.00199  -2.06912
    D9        0.00000   0.00000   0.00000   0.00000   0.00000   0.00000
         Item               Value     Threshold  Converged?
 Maximum Force            0.003923     0.000450     NO 
 RMS     Force            0.001508     0.000300     NO 
 Maximum Displacement     0.019074     0.001800     NO 
 RMS     Displacement     0.006472     0.001200     NO 
 Predicted change in Energy=-7.488727D-05
 GradGradGradGradGradGradGradGradGradGradGradGradGradGradGradGradGradGrad

                          Input orientation:                          
 ---------------------------------------------------------------------
 Center     Atomic      Atomic             Coordinates (Angstroms)
 Number     Number       Type             X           Y           Z
 ---------------------------------------------------------------------
      1          6           0        1.426969    0.077068   -0.009297
      2          1           0        1.808067   -0.779549    0.514457
      3          1           0        1.808078    0.102536   -1.013017
      4          6           0       -0.109826    0.077087   -0.009297
      5          1           0       -0.490934    0.102565   -1.013017
      6          1           0       -0.490945   -0.779521    0.514457
      7         17           0       -0.929780    1.535987    0.833182
      8         17           0        2.246958    1.535948    0.833182
 ---------------------------------------------------------------------
                    Distance matrix (angstroms):
                    1          2          3          4          5
     1  C    0.000000
     2  H    1.073940   0.000000
     3  H    1.073940   1.763874   0.000000
     4  C    1.536795   2.164823   2.164823   0.000000
     5  H    2.164823   2.897707   2.299012   1.073940   0.000000
     6  H    2.164823   2.299012   2.897707   1.073940   1.763874
     7  Cl   2.896978   3.599874   3.599874   1.873629   2.378179
     8  Cl   1.873629   2.378179   2.378179   2.896978   3.599874
                    6          7          8
     6  H    0.000000
     7  Cl   2.378179   0.000000
     8  Cl   3.599874   3.176738   0.000000
 Stoichiometry    C2H4Cl2
 Framework group  C2V[SGV(C2Cl2),X(H4)]
 Deg. of freedom     6
 Full point group                 C2V     NOp   4
 Largest Abelian subgroup         C2V     NOp   4
 Largest concise Abelian subgroup C2V     NOp   4
                         Standard orientation:                         
 ---------------------------------------------------------------------
 Center     Atomic      Atomic             Coordinates (Angstroms)
 Number     Number       Type             X           Y           Z
 ---------------------------------------------------------------------
      1          6           0        0.000000    0.768398    1.107188
      2          1           0       -0.881937    1.149506    1.587074
      3          1           0        0.881937    1.149506    1.587074
      4          6           0        0.000000   -0.768398    1.107188
      5          1           0        0.881937   -1.149506    1.587074
      6          1           0       -0.881937   -1.149506    1.587074
      7         17           0        0.000000   -1.588369   -0.577487
      8         17           0        0.000000    1.588369   -0.577487
 ---------------------------------------------------------------------
 Rotational constants (GHZ):      7.7189597      2.5385751      1.9567021
 Standard basis: 3-21G (6D, 7F)
 There are    19 symmetry adapted basis functions of A1  symmetry.
 There are     7 symmetry adapted basis functions of A2  symmetry.
 There are     7 symmetry adapted basis functions of B1  symmetry.
 There are    19 symmetry adapted basis functions of B2  symmetry.
 Integral buffers will be    262144 words long.
 Raffenetti 1 integral format.
 Two-electron integral symmetry is turned on.
    52 basis functions,    96 primitive gaussians,    52 cartesian basis functions
    25 alpha electrons       25 beta electrons
       nuclear repulsion energy       199.6627421364 Hartrees.
 NAtoms=    8 NActive=    8 NUniq=    3 SFac= 3.00D+00 NAtFMM=   80 NAOKFM=F Big=F
 One-electron integrals computed using PRISM.
 NBasis=    52 RedAO= T  NBF=    19     7     7    19
 NBsUse=    52 1.00D-06 NBFU=    19     7     7    19
 Initial guess read from the read-write file.
 B after Tr=     0.000000    0.000000    0.000000
         Rot=    1.000000    0.000000    0.000000    0.000000 Ang=   0.00 deg.
 Initial guess orbital symmetries:
       Occupied  (B2) (A1) (B2) (A1) (B2) (A1) (B2) (A1) (B2) (A2)
                 (B1) (A1) (A1) (B2) (A1) (B2) (B1) (A1) (A2) (A1)
                 (B2) (A1) (B1) (A2) (B2)
       Virtual   (A1) (B2) (A1) (B1) (B2) (A2) (B2) (A1) (B2) (B1)
                 (A1) (A1) (B2) (A2) (B1) (A1) (B2) (A1) (B2) (A2)
                 (B2) (B1) (A1) (A2) (B2) (A1) (B2)
 Requested convergence on RMS density matrix=1.00D-08 within 128 cycles.
 Requested convergence on MAX density matrix=1.00D-06.
 Requested convergence on             energy=1.00D-06.
 No special actions if energy rises.
 Keep R1 ints in memory in canonical form, NReq=1777147.
 SCF Done:  E(RHF) =  -992.210896567     A.U. after    9 cycles
             Convg  =    0.5324D-08             -V/T =  2.0008
 Calling FoFJK, ICntrl=      2127 FMM=F ISym2X=1 I1Cent= 0 IOpClX= 0 NMat=1 NMatS=1 NMatT=0.
 ***** Axes restored to original set *****
 -------------------------------------------------------------------
 Center     Atomic                   Forces (Hartrees/Bohr)
 Number     Number              X              Y              Z
 -------------------------------------------------------------------
      1        6          -0.000475006   -0.000180254   -0.000104096
      2        1           0.000358045   -0.000066650    0.000080695
      3        1           0.000358046    0.000036576   -0.000098057
      4        6           0.000475001   -0.000180265   -0.000104096
      5        1          -0.000358046    0.000036585   -0.000098057
      6        1          -0.000358047   -0.000066641    0.000080695
      7       17          -0.000905849    0.000210336    0.000121458
      8       17           0.000905854    0.000210313    0.000121458
 -------------------------------------------------------------------
 Cartesian Forces:  Max     0.000905854 RMS     0.000344820

 GradGradGradGradGradGradGradGradGradGradGradGradGradGradGradGradGradGrad
 Berny optimization.
 Using GEDIIS/GDIIS optimizer.
 Internal  Forces:  Max     0.001658003 RMS     0.000615445
 Search for a local minimum.
 Step number   5 out of a maximum of   38 on scan point     1 out of    37
 All quantities printed in internal units (Hartrees-Bohrs-Radians)
 Mixed Optimization -- En-DIIS/RFO-DIIS
 Update second derivatives using D2CorX and points    1    2    3    4    5
 DE= -8.82D-05 DEPred=-7.49D-05 R= 1.18D+00
 SS=  1.41D+00  RLast= 2.28D-02 DXNew= 8.4853D-01 6.8318D-02
 Trust test= 1.18D+00 RLast= 2.28D-02 DXMaxT set to 5.05D-01
 Use linear search instead of GDIIS.
     Eigenvalues ---    0.01497   0.05012   0.05265   0.05556   0.13360
     Eigenvalues ---    0.16000   0.16000   0.16000   0.22295   0.25340
     Eigenvalues ---    0.29359   0.29539   0.37230   0.37230   0.37230
     Eigenvalues ---    0.38054   0.556271000.000001000.000001000.00000
     Eigenvalues --- 1000.000001000.000001000.000001000.000001000.00000
     Eigenvalues --- 1000.000001000.000001000.00000
 RFO step:  Lambda=-1.96686935D-05 EMin= 1.49725353D-02
 Quartic linear search produced a step of  0.21758.
 Iteration  1 RMS(Cart)=  0.00346104 RMS(Int)=  0.00000438
 Iteration  2 RMS(Cart)=  0.00000643 RMS(Int)=  0.00000164
 Iteration  3 RMS(Cart)=  0.00000000 RMS(Int)=  0.00000164
 Iteration  1 RMS(Cart)=  0.00000000 RMS(Int)=  0.00000000
 ClnCor:  largest displacement from symmetrization is 6.39D-09 for atom     3.
 Variable       Old X    -DE/DX   Delta X   Delta X   Delta X     New X
                                 (Linear)    (Quad)   (Total)
    R1        2.02945   0.00022  -0.00009   0.00067   0.00058   2.03004
    R2        2.02945   0.00022  -0.00009   0.00067   0.00058   2.03004
    R3        2.90412   0.00115  -0.00252   0.00260   0.00009   2.90421
    R4        3.54064   0.00061   0.00238   0.00144   0.00382   3.54446
    R5        2.02945   0.00022  -0.00009   0.00067   0.00058   2.03004
    R6        2.02945   0.00022  -0.00009   0.00067   0.00058   2.03004
    R7        3.54064   0.00061   0.00238   0.00144   0.00382   3.54446
    A1        1.92708  -0.00022  -0.00026  -0.00105  -0.00131   1.92577
    A2        1.93357   0.00002  -0.00038   0.00208   0.00169   1.93526
    A3        1.81984  -0.00080  -0.00018  -0.00275  -0.00293   1.81691
    A4        1.93357   0.00002  -0.00038   0.00208   0.00169   1.93526
    A5        1.81984  -0.00080  -0.00018  -0.00275  -0.00293   1.81691
    A6        2.02377   0.00166   0.00137   0.00181   0.00318   2.02695
    A7        1.93357   0.00002  -0.00038   0.00208   0.00169   1.93526
    A8        1.93357   0.00002  -0.00038   0.00208   0.00169   1.93526
    A9        2.02377   0.00166   0.00137   0.00181   0.00318   2.02695
   A10        1.92708  -0.00022  -0.00026  -0.00105  -0.00131   1.92577
   A11        1.81984  -0.00080  -0.00018  -0.00275  -0.00293   1.81691
   A12        1.81984  -0.00080  -0.00018  -0.00275  -0.00293   1.81691
    D1       -2.14495   0.00025   0.00087  -0.00155  -0.00069  -2.14563
    D2        0.00000   0.00000   0.00000   0.00000   0.00000   0.00000
    D3        2.06912   0.00012   0.00043  -0.00078  -0.00034   2.06878
    D4        0.00000   0.00000   0.00000   0.00000   0.00000   0.00000
    D5        2.14495  -0.00025  -0.00087   0.00155   0.00069   2.14563
    D6       -2.06912  -0.00012  -0.00043   0.00078   0.00034  -2.06878
    D7        2.06912   0.00012   0.00043  -0.00078  -0.00034   2.06878
    D8       -2.06912  -0.00012  -0.00043   0.00078   0.00034  -2.06878
    D9        0.00000   0.00000   0.00000   0.00000   0.00000   0.00000
         Item               Value     Threshold  Converged?
 Maximum Force            0.001658     0.000450     NO 
 RMS     Force            0.000627     0.000300     NO 
 Maximum Displacement     0.011843     0.001800     NO 
 RMS     Displacement     0.003466     0.001200     NO 
 Predicted change in Energy=-1.271444D-05
 GradGradGradGradGradGradGradGradGradGradGradGradGradGradGradGradGradGrad

                          Input orientation:                          
 ---------------------------------------------------------------------
 Center     Atomic      Atomic             Coordinates (Angstroms)
 Number     Number       Type             X           Y           Z
 ---------------------------------------------------------------------
      1          6           0        1.426992    0.077038   -0.009315
      2          1           0        1.809893   -0.779096    0.514547
      3          1           0        1.809904    0.102841   -1.012670
      4          6           0       -0.109849    0.077056   -0.009315
      5          1           0       -0.492761    0.102869   -1.012670
      6          1           0       -0.492771   -0.779068    0.514547
      7         17           0       -0.936047    1.535260    0.832762
      8         17           0        2.253226    1.535221    0.832762
 ---------------------------------------------------------------------
                    Distance matrix (angstroms):
                    1          2          3          4          5
     1  C    0.000000
     2  H    1.074248   0.000000
     3  H    1.074248   1.763577   0.000000
     4  C    1.536841   2.166296   2.166296   0.000000
     5  H    2.166296   2.900426   2.302665   1.074248   0.000000
     6  H    2.166296   2.302665   2.900426   1.074248   1.763577
     7  Cl   2.901630   3.605231   3.605231   1.875648   2.377786
     8  Cl   1.875648   2.377786   2.377786   2.901630   3.605231
                    6          7          8
     6  H    0.000000
     7  Cl   2.377786   0.000000
     8  Cl   3.605231   3.189272   0.000000
 Stoichiometry    C2H4Cl2
 Framework group  C2V[SGV(C2Cl2),X(H4)]
 Deg. of freedom     6
 Full point group                 C2V     NOp   4
 Largest Abelian subgroup         C2V     NOp   4
 Largest concise Abelian subgroup C2V     NOp   4
                         Standard orientation:                         
 ---------------------------------------------------------------------
 Center     Atomic      Atomic             Coordinates (Angstroms)
 Number     Number       Type             X           Y           Z
 ---------------------------------------------------------------------
      1          6           0        0.000000    0.768420    1.106679
      2          1           0       -0.881788    1.151332    1.586092
      3          1           0        0.881788    1.151332    1.586092
      4          6           0        0.000000   -0.768420    1.106679
      5          1           0        0.881788   -1.151332    1.586092
      6          1           0       -0.881788   -1.151332    1.586092
      7         17           0        0.000000   -1.594636   -0.577192
      8         17           0        0.000000    1.594636   -0.577192
 ---------------------------------------------------------------------
 Rotational constants (GHZ):      7.7264887      2.5206983      1.9465264
 Standard basis: 3-21G (6D, 7F)
 There are    19 symmetry adapted basis functions of A1  symmetry.
 There are     7 symmetry adapted basis functions of A2  symmetry.
 There are     7 symmetry adapted basis functions of B1  symmetry.
 There are    19 symmetry adapted basis functions of B2  symmetry.
 Integral buffers will be    262144 words long.
 Raffenetti 1 integral format.
 Two-electron integral symmetry is turned on.
    52 basis functions,    96 primitive gaussians,    52 cartesian basis functions
    25 alpha electrons       25 beta electrons
       nuclear repulsion energy       199.3306737301 Hartrees.
 NAtoms=    8 NActive=    8 NUniq=    3 SFac= 3.00D+00 NAtFMM=   80 NAOKFM=F Big=F
 One-electron integrals computed using PRISM.
 NBasis=    52 RedAO= T  NBF=    19     7     7    19
 NBsUse=    52 1.00D-06 NBFU=    19     7     7    19
 Initial guess read from the read-write file.
 B after Tr=     0.000000    0.000000    0.000000
         Rot=    1.000000    0.000000    0.000000    0.000000 Ang=   0.00 deg.
 Initial guess orbital symmetries:
       Occupied  (B2) (A1) (B2) (A1) (B2) (A1) (B2) (A1) (B2) (A2)
                 (B1) (A1) (A1) (B2) (A1) (B2) (B1) (A1) (A2) (A1)
                 (B2) (A1) (B1) (A2) (B2)
       Virtual   (A1) (B2) (A1) (B1) (B2) (A2) (B2) (A1) (B2) (B1)
                 (A1) (A1) (B2) (A2) (B1) (A1) (B2) (A1) (B2) (A2)
                 (B2) (B1) (A1) (A2) (B2) (A1) (B2)
 Requested convergence on RMS density matrix=1.00D-08 within 128 cycles.
 Requested convergence on MAX density matrix=1.00D-06.
 Requested convergence on             energy=1.00D-06.
 No special actions if energy rises.
 Keep R1 ints in memory in canonical form, NReq=1777147.
 SCF Done:  E(RHF) =  -992.210909626     A.U. after    9 cycles
             Convg  =    0.2218D-08             -V/T =  2.0008
 Calling FoFJK, ICntrl=      2127 FMM=F ISym2X=1 I1Cent= 0 IOpClX= 0 NMat=1 NMatS=1 NMatT=0.
 ***** Axes restored to original set *****
 -------------------------------------------------------------------
 Center     Atomic                   Forces (Hartrees/Bohr)
 Number     Number              X              Y              Z
 -------------------------------------------------------------------
      1        6           0.000178985    0.000028801    0.000016633
      2        1          -0.000031497   -0.000003266   -0.000009017
      3        1          -0.000031497   -0.000009442    0.000001678
      4        6          -0.000178984    0.000028805    0.000016633
      5        1           0.000031497   -0.000009443    0.000001678
      6        1           0.000031497   -0.000003267   -0.000009017
      7       17          -0.000048005   -0.000016093   -0.000009294
      8       17           0.000048005   -0.000016094   -0.000009294
 -------------------------------------------------------------------
 Cartesian Forces:  Max     0.000178985 RMS     0.000056243

 GradGradGradGradGradGradGradGradGradGradGradGradGradGradGradGradGradGrad
 Berny optimization.
 Using GEDIIS/GDIIS optimizer.
 Internal  Forces:  Max     0.000163995 RMS     0.000058998
 Search for a local minimum.
 Step number   6 out of a maximum of   38 on scan point     1 out of    37
 All quantities printed in internal units (Hartrees-Bohrs-Radians)
 Mixed Optimization -- En-DIIS/RFO-DIIS
 Swaping is turned off.
 Update second derivatives using D2CorX and points    1    2    3    4    5
                                                      6
 DE= -1.31D-05 DEPred=-1.27D-05 R= 1.03D+00
 SS=  1.41D+00  RLast= 1.01D-02 DXNew= 8.4853D-01 3.0206D-02
 Trust test= 1.03D+00 RLast= 1.01D-02 DXMaxT set to 5.05D-01
     Eigenvalues ---    0.01488   0.04987   0.05394   0.05536   0.14255
     Eigenvalues ---    0.16000   0.16000   0.16000   0.22285   0.24769
     Eigenvalues ---    0.29539   0.29567   0.37230   0.37230   0.37230
     Eigenvalues ---    0.38287   0.503731000.000001000.000001000.00000
     Eigenvalues --- 1000.000001000.000001000.000001000.000001000.00000
     Eigenvalues --- 1000.000001000.000001000.00000
 En-DIIS/RFO-DIIS IScMMF=        0 using points:     6    5
 RFO step:  Lambda=-1.56729314D-07.
 DIIS coeffs:      1.03058     -0.03058
 Iteration  1 RMS(Cart)=  0.00036612 RMS(Int)=  0.00000010
 Iteration  2 RMS(Cart)=  0.00000008 RMS(Int)=  0.00000007
 Iteration  1 RMS(Cart)=  0.00000000 RMS(Int)=  0.00000000
 ClnCor:  largest displacement from symmetrization is 7.19D-09 for atom     3.
 Variable       Old X    -DE/DX   Delta X   Delta X   Delta X     New X
                                  (DIIS)     (GDIIS)  (Total)
    R1        2.03004  -0.00001   0.00002  -0.00005  -0.00003   2.03000
    R2        2.03004  -0.00001   0.00002  -0.00005  -0.00003   2.03000
    R3        2.90421   0.00016   0.00000   0.00048   0.00048   2.90469
    R4        3.54446   0.00000   0.00012  -0.00030  -0.00019   3.54428
    R5        2.03004  -0.00001   0.00002  -0.00005  -0.00003   2.03000
    R6        2.03004  -0.00001   0.00002  -0.00005  -0.00003   2.03000
    R7        3.54446   0.00000   0.00012  -0.00030  -0.00019   3.54428
    A1        1.92577   0.00003  -0.00004   0.00005   0.00001   1.92578
    A2        1.93526  -0.00006   0.00005  -0.00037  -0.00031   1.93494
    A3        1.81691  -0.00003  -0.00009   0.00027   0.00018   1.81709
    A4        1.93526  -0.00006   0.00005  -0.00037  -0.00031   1.93494
    A5        1.81691  -0.00003  -0.00009   0.00027   0.00018   1.81709
    A6        2.02695   0.00015   0.00010   0.00021   0.00031   2.02726
    A7        1.93526  -0.00006   0.00005  -0.00037  -0.00031   1.93494
    A8        1.93526  -0.00006   0.00005  -0.00037  -0.00031   1.93494
    A9        2.02695   0.00015   0.00010   0.00021   0.00031   2.02726
   A10        1.92577   0.00003  -0.00004   0.00005   0.00001   1.92578
   A11        1.81691  -0.00003  -0.00009   0.00027   0.00018   1.81709
   A12        1.81691  -0.00003  -0.00009   0.00027   0.00018   1.81709
    D1       -2.14563   0.00004  -0.00002   0.00045   0.00043  -2.14521
    D2        0.00000   0.00000   0.00000   0.00000   0.00000   0.00000
    D3        2.06878   0.00002  -0.00001   0.00022   0.00021   2.06899
    D4        0.00000   0.00000   0.00000   0.00000   0.00000   0.00000
    D5        2.14563  -0.00004   0.00002  -0.00045  -0.00043   2.14521
    D6       -2.06878  -0.00002   0.00001  -0.00022  -0.00021  -2.06899
    D7        2.06878   0.00002  -0.00001   0.00022   0.00021   2.06899
    D8       -2.06878  -0.00002   0.00001  -0.00022  -0.00021  -2.06899
    D9        0.00000   0.00000   0.00000   0.00000   0.00000   0.00000
         Item               Value     Threshold  Converged?
 Maximum Force            0.000164     0.000450     YES
 RMS     Force            0.000060     0.000300     YES
 Maximum Displacement     0.001150     0.001800     YES
 RMS     Displacement     0.000366     0.001200     YES
 Predicted change in Energy=-1.405341D-07
 Optimization completed.
    -- Stationary point found.
                           ----------------------------
                           !   Optimized Parameters   !
                           ! (Angstroms and Degrees)  !
 --------------------------                            --------------------------
 ! Name  Definition              Value          Derivative Info.                !
 --------------------------------------------------------------------------------
 ! R1    R(1,2)                  1.0742         -DE/DX =    0.0                 !
 ! R2    R(1,3)                  1.0742         -DE/DX =    0.0                 !
 ! R3    R(1,4)                  1.5368         -DE/DX =    0.0002              !
 ! R4    R(1,8)                  1.8756         -DE/DX =    0.0                 !
 ! R5    R(4,5)                  1.0742         -DE/DX =    0.0                 !
 ! R6    R(4,6)                  1.0742         -DE/DX =    0.0                 !
 ! R7    R(4,7)                  1.8756         -DE/DX =    0.0                 !
 ! A1    A(2,1,3)              110.3384         -DE/DX =    0.0                 !
 ! A2    A(2,1,4)              110.8821         -DE/DX =   -0.0001              !
 ! A3    A(2,1,8)              104.1011         -DE/DX =    0.0                 !
 ! A4    A(3,1,4)              110.8821         -DE/DX =   -0.0001              !
 ! A5    A(3,1,8)              104.1011         -DE/DX =    0.0                 !
 ! A6    A(4,1,8)              116.1355         -DE/DX =    0.0002              !
 ! A7    A(1,4,5)              110.8821         -DE/DX =   -0.0001              !
 ! A8    A(1,4,6)              110.8821         -DE/DX =   -0.0001              !
 ! A9    A(1,4,7)              116.1355         -DE/DX =    0.0002              !
 ! A10   A(5,4,6)              110.3384         -DE/DX =    0.0                 !
 ! A11   A(5,4,7)              104.1011         -DE/DX =    0.0                 !
 ! A12   A(6,4,7)              104.1011         -DE/DX =    0.0                 !
 ! D1    D(2,1,4,5)           -122.9357         -DE/DX =    0.0                 !
 ! D2    D(2,1,4,6)              0.0            -DE/DX =    0.0                 !
 ! D3    D(2,1,4,7)            118.5322         -DE/DX =    0.0                 !
 ! D4    D(3,1,4,5)              0.0            -DE/DX =    0.0                 !
 ! D5    D(3,1,4,6)            122.9357         -DE/DX =    0.0                 !
 ! D6    D(3,1,4,7)           -118.5322         -DE/DX =    0.0                 !
 ! D7    D(8,1,4,5)            118.5322         -DE/DX =    0.0                 !
 ! D8    D(8,1,4,6)           -118.5322         -DE/DX =    0.0                 !
 ! D9    D(8,1,4,7)              0.0            -DE/DX =    0.0                 !
 --------------------------------------------------------------------------------
 Iteration  1 RMS(Cart)=  0.02093381 RMS(Int)=  0.02508740
 Iteration  2 RMS(Cart)=  0.00124411 RMS(Int)=  0.02508123
 Iteration  3 RMS(Cart)=  0.00001088 RMS(Int)=  0.02508123
 Iteration  4 RMS(Cart)=  0.00000075 RMS(Int)=  0.02508123
 Iteration  1 RMS(Cart)=  0.01211764 RMS(Int)=  0.01449787
 Iteration  2 RMS(Cart)=  0.00702503 RMS(Int)=  0.01616797
 Iteration  3 RMS(Cart)=  0.00406804 RMS(Int)=  0.01837799
 Iteration  4 RMS(Cart)=  0.00235322 RMS(Int)=  0.01993651
 Iteration  5 RMS(Cart)=  0.00136024 RMS(Int)=  0.02090839
 Iteration  6 RMS(Cart)=  0.00078590 RMS(Int)=  0.02149004
 Iteration  7 RMS(Cart)=  0.00045393 RMS(Int)=  0.02183212
 Iteration  8 RMS(Cart)=  0.00026215 RMS(Int)=  0.02203159
 Iteration  9 RMS(Cart)=  0.00015137 RMS(Int)=  0.02214740
 Iteration 10 RMS(Cart)=  0.00008740 RMS(Int)=  0.02221448
 Iteration 11 RMS(Cart)=  0.00005047 RMS(Int)=  0.02225328
 Iteration 12 RMS(Cart)=  0.00002914 RMS(Int)=  0.02227570
 Iteration 13 RMS(Cart)=  0.00001682 RMS(Int)=  0.02228865
 Iteration 14 RMS(Cart)=  0.00000971 RMS(Int)=  0.02229613
 Iteration 15 RMS(Cart)=  0.00000561 RMS(Int)=  0.02230045
 Iteration 16 RMS(Cart)=  0.00000324 RMS(Int)=  0.02230295
 Iteration 17 RMS(Cart)=  0.00000187 RMS(Int)=  0.02230439
[...]
           D8         -18.51742  -7.73447   3.37164  14.47158  25.28756
           D9         100.00017 110.00016 120.00015 130.00017 140.00016
                          16        17        18        19        20
     Eigenvalues --  -992.22452-992.22643-992.22781-992.22831-992.22781
           R1           1.07331   1.07322   1.07319   1.07316   1.07310
           R2           1.07281   1.07298   1.07310   1.07315   1.07317
           R3           1.51504   1.51100   1.50813   1.50712   1.50823
           R4           1.89347   1.89361   1.89357   1.89357   1.89351
           R5           1.07331   1.07322   1.07319   1.07316   1.07311
           R6           1.07281   1.07298   1.07310   1.07315   1.07316
           R7           1.89347   1.89361   1.89357   1.89357   1.89350
           A1         111.76970 111.91081 112.00039 112.03175 111.99034
           A2         113.62389 113.54767 113.28721 112.93486 112.58807
           A3         106.08300 106.18598 106.01023 105.59521 105.04572
           A4         112.26537 112.34366 112.59114 112.94147 113.29478
           A5         104.10017 104.48945 105.03817 105.59266 106.00553
           A6         108.28238 107.65013 107.21156 107.04750 107.21490
           A7         113.62394 113.54779 113.28763 112.93650 112.59475
           A8         112.26536 112.34361 112.59089 112.94026 113.28943
           A9         108.28236 107.65011 107.21152 107.04747 107.21499
           A10        111.76971 111.91083 112.00045 112.03190 111.99077
           A11        106.08300 106.18597 106.01019 105.59503 105.04507
           A12        104.10013 104.48938 105.03799 105.59219 106.00413
           D1          25.15499  34.48588  43.18954  51.58159  60.08169
           D2         153.21539 162.74559 171.56531 180.00092-171.55105
           D3         -92.42240 -82.75700 -73.40523 -64.20945 -54.96050
           D4         153.21534 162.74550 171.56509 180.00033-171.55286
           D5         -78.72426 -68.99480 -60.05913 -51.58035 -43.18561
           D6          35.63795  45.50261  54.97033  64.20928  73.40495
           D7         -92.42239 -82.75696 -73.40507 -64.20879 -54.95764
           D8          35.63801  45.50275  54.97071  64.21054  73.40961
           D9         150.00022 160.00015 170.00017-179.99983-169.99983
                          21        22        23        24        25
     Eigenvalues --  -992.22643-992.22452-992.22256-992.22106-992.22037
           R1           1.07296   1.07274   1.07261   1.07247   1.07243
           R2           1.07319   1.07329   1.07344   1.07377   1.07428
           R3           1.51116   1.51521   1.51922   1.52202   1.52234
           R4           1.89355   1.89334   1.89307   1.89202   1.89112
           R5           1.07300   1.07286   1.07257   1.07245   1.07242
           R6           1.07316   1.07321   1.07347   1.07380   1.07429
           R7           1.89354   1.89329   1.89306   1.89198   1.89110
           A1         111.89065 111.73147 111.56001 111.39970 111.28096
           A2         112.34112 112.24376 112.40149 112.64562 112.95711
           A3         104.50520 104.12558 104.02317 104.22177 104.70129
           A4         113.56072 113.64757 113.44439 113.05428 112.49975
           A5         106.17707 106.07259 105.72092 105.18625 104.62468
           A6         107.65396 108.30723 108.99380 109.66746 110.14892
           A7         112.36506 112.31237 112.37788 112.64043 112.96360
           A8         113.54099 113.59084 113.46588 113.06482 112.51043
           A9         107.65475 108.30991 108.99091 109.66171 110.13693
           A10        111.89206 111.73607 111.55713 111.39721 111.28767
           A11        104.50293 104.11924 104.02397 104.22318 104.69341
           A12        106.17259 106.05910 105.72815 105.18717 104.61763
           D1          69.04535  78.82367  89.53693 101.15853 113.34491
           D2        -162.70814-153.15010-142.73564-131.45140-119.61167
           D3         -45.48272 -35.60404 -25.22452 -14.41834  -3.32079
           D4        -162.71405-153.16765-142.72956-131.45251-119.63533
           D5         -34.46753 -25.14142 -15.00213  -4.06245   7.40809
           D6          82.75789  92.40464 102.50899 112.97062 123.69897
           D7         -45.47211 -35.57243 -25.23875 -14.42333  -3.33451
           D8          82.77440  92.45379 102.48869 112.96674 123.70890
           D9        -160.00018-150.00014-140.00019-130.00020-120.00022
                          26        27        28        29        30
     Eigenvalues --  -992.22060-992.22158-992.22287-992.22392-992.22420
           R1           1.07255   1.07275   1.07307   1.07345   1.07388
           R2           1.07493   1.07562   1.07631   1.07668   1.07682
           R3           1.51989   1.51557   1.51091   1.50747   1.50613
           R4           1.88938   1.88767   1.88519   1.88285   1.88063
           R5           1.07253   1.07275   1.07306   1.07345   1.07389
           R6           1.07496   1.07568   1.07628   1.07668   1.07682
           R7           1.88924   1.88737   1.88531   1.88284   1.88064
           A1         111.22168 111.23813 111.29987 111.37838 111.36949
           A2         113.18934 113.28765 113.25548 113.06255 112.78061
           A3         105.27771 105.78391 106.04958 106.00745 105.68376
           A4         111.89640 111.38085 111.10114 110.96213 110.90208
           A5         104.18587 104.00276 104.07542 104.43848 104.89924
           A6         110.48126 110.59900 110.54623 110.52924 110.79666
           A7         113.19632 113.31475 113.24267 113.06409 112.78608
           A8         111.92429 111.43769 111.08045 110.96051 110.89911
           A9         110.45820 110.54667 110.56544 110.52898 110.79500
           A10        111.23177 111.26058 111.29242 111.37744 111.36950
           A11        105.26540 105.76011 106.05790 106.01123 105.68671
           A12        104.17096 103.96018 104.09357 104.43590 104.89496
           D1         125.52374 137.07878 147.70419 157.30809 166.48187
           D2        -107.80778 -96.52088 -86.20248 -76.72183 -67.82369
           D3           7.77518  18.56385  28.84443  38.65131  48.23772
           D4        -107.85049 -96.61984 -86.16550 -76.72047 -67.82558
           D5          18.81799  29.78050  39.92783  49.24960  57.86886
           D6         134.40095 144.86523 154.97474 164.62275 173.93027
           D7           7.74841  18.51511  28.85992  38.65695  48.24393
           D8         134.41689 144.91545 154.95325 164.62703 173.93837
           D9        -110.00015 -99.99982 -89.99984 -79.99983 -70.00021
                          31        32        33        34        35
     Eigenvalues --  -992.22336-992.22139-992.21868-992.21578-992.21324
           R1           1.07426   1.07448   1.07447   1.07438   1.07419
           R2           1.07673   1.07645   1.07603   1.07556   1.07499
           R3           1.50750   1.51144   1.51741   1.52433   1.53092
           R4           1.87861   1.87692   1.87593   1.87556   1.87545
           R5           1.07426   1.07446   1.07445   1.07437   1.07418
           R6           1.07672   1.07646   1.07604   1.07557   1.07500
           R7           1.87859   1.87697   1.87592   1.87558   1.87554
           A1         111.27822 111.05852 110.83888 110.62650 110.48871
           A2         112.44760 112.12368 111.82577 111.51811 111.28519
           A3         105.13052 104.49463 103.96383 103.62157 103.56932
           A4         110.79996 110.58975 110.48506 110.45786 110.54816
           A5         105.32215 105.63035 105.66850 105.51178 105.08144
           A6         111.50400 112.62428 113.74229 114.77208 115.50484
           A7         112.45099 112.11510 111.81885 111.51082 111.28002
           A8         110.79507 110.59466 110.48216 110.46478 110.55744
           A9         111.50407 112.62374 113.74078 114.77434 115.50718
           A10        111.27669 111.05710 110.83541 110.62641 110.48553
           A11        105.13537 104.49957 103.97413 103.62069 103.56835
           A12        105.32042 105.63149 105.67420 105.51066 105.07838
           D1         175.59987-174.95028-165.20137-155.13330-144.60280
           D2         -59.16630 -50.40843 -41.24716 -31.68145 -21.42847
           D3          57.79563  67.52469  77.39555  87.43571  97.70026
           D4         -59.16307 -50.40396 -41.23556 -31.68114 -21.42735
           D5          66.07076  74.13788  82.71866  91.77072 101.74698
           D6        -176.96731-167.92899-158.63863-149.11213-139.12429
           D7          57.80408  67.52478  77.40291  87.43083  97.69676
           D8        -176.96209-167.93337-158.64288-149.11731-139.12891
           D9         -60.00016 -50.00025 -40.00017 -30.00016 -20.00018
                          36        37
     Eigenvalues --  -992.21152-992.21091
           R1           1.07410   1.07421
           R2           1.07452   1.07419
           R3           1.53550   1.53730
           R4           1.87559   1.87556
           R5           1.07410   1.07420
           R6           1.07451   1.07420
           R7           1.87549   1.87558
           A1         110.39407 110.37162
           A2         111.05598 110.86176
           A3         103.73500 104.11747
           A4         110.70109 110.86874
           A5         104.58710 104.08859
           A6         115.97997 116.13700
           A7         111.06607 110.86256
           A8         110.69000 110.87558
           A9         115.97552 116.13515
           A10        110.39316 110.36836
           A11        103.73580 104.11371
           A12        104.59312 104.08900
           D1        -133.84517-122.92740
           D2         -10.84551   0.02830
           D3         108.07453 118.53917
           D4         -10.84361   0.02712
           D5         112.15605 122.98282
           D6        -128.92391-118.50631
           D7         108.08013 118.53353
           D8        -128.92022-118.51077
           D9         -10.00017   0.00011
                          Input orientation:                          
 ---------------------------------------------------------------------
 Center     Atomic      Atomic             Coordinates (Angstroms)
 Number     Number       Type             X           Y           Z
 ---------------------------------------------------------------------
      1          6           0        1.427115    0.398352    0.159094
      2          1           0        1.792650    1.258159   -0.371032
      3          1           0        1.826768    0.375873    1.155917
      4          6           0       -0.109898    0.383713    0.184861
      5          1           0       -0.475314    0.354421    1.194569
      6          1           0       -0.509543    1.235887   -0.332807
      7         17           0       -0.936145   -1.082349   -0.643255
      8         17           0        2.252954   -1.051934   -0.696699
 ---------------------------------------------------------------------
                    Distance matrix (angstroms):
                    1          2          3          4          5
     1  C    0.000000
     2  H    1.074206   0.000000
     3  H    1.074190   1.763849   0.000000
     4  C    1.537299   2.166418   2.166492   0.000000
     5  H    2.166420   2.900261   2.302507   1.074196   0.000000
     6  H    2.166582   2.302618   2.900737   1.074196   1.763812
     7  Cl   2.901937   3.605330   3.605152   1.875579   2.377871
     8  Cl   1.875559   2.377913   2.377488   2.901948   3.605299
                    6          7          8
     6  H    0.000000
     7  Cl   2.377516   0.000000
     8  Cl   3.605265   3.189692   0.000000
 Stoichiometry    C2H4Cl2
 Framework group  C1[X(C2H4Cl2)]
 Deg. of freedom    18
 Full point group                 C1      NOp   1
 Largest Abelian subgroup         C1      NOp   1
 Largest concise Abelian subgroup C1      NOp   1
                         Standard orientation:                         
 ---------------------------------------------------------------------
 Center     Atomic      Atomic             Coordinates (Angstroms)
 Number     Number       Type             X           Y           Z
 ---------------------------------------------------------------------
      1          6           0        0.768648    1.106628   -0.000008
      2          1           0        1.151187    1.586190   -0.881826
      3          1           0        1.151314    1.585658    0.882023
      4          6           0       -0.768652    1.106643    0.000001
      5          1           0       -1.151193    1.586121    0.881853
      6          1           0       -1.151432    1.585728   -0.881959
      7         17           0       -1.594842   -0.577164    0.000010
      8         17           0        1.594851   -0.577150   -0.000013
 ---------------------------------------------------------------------
 Rotational constants (GHZ):      7.7272319      2.5199975      1.9461691

 **********************************************************************

            Population analysis using the SCF density.

 **********************************************************************

 Orbital symmetries:
       Occupied  (A) (A) (A) (A) (A) (A) (A) (A) (A) (A) (A) (A)
                 (A) (A) (A) (A) (A) (A) (A) (A) (A) (A) (A) (A)
                 (A)
       Virtual   (A) (A) (A) (A) (A) (A) (A) (A) (A) (A) (A) (A)
                 (A) (A) (A) (A) (A) (A) (A) (A) (A) (A) (A) (A)
                 (A) (A) (A)
 The electronic state is 1-A.
 Alpha  occ. eigenvalues -- -104.09878-104.09846 -11.27497 -11.27462 -10.49247
 Alpha  occ. eigenvalues --  -10.49140  -7.95571  -7.95549  -7.95163  -7.95150
 Alpha  occ. eigenvalues --   -7.95134  -7.95127  -1.16445  -1.10142  -1.00057
 Alpha  occ. eigenvalues --   -0.85969  -0.70339  -0.64091  -0.59316  -0.55701
 Alpha  occ. eigenvalues --   -0.49662  -0.45627  -0.45331  -0.43392  -0.43390
 Alpha virt. eigenvalues --    0.11361   0.21558   0.23153   0.25150   0.33323
 Alpha virt. eigenvalues --    0.36702   0.37344   0.67230   0.75298   0.76571
 Alpha virt. eigenvalues --    0.78753   0.83514   0.84683   0.84856   0.90306
 Alpha virt. eigenvalues --    0.94822   0.97473   1.01101   1.08147   1.17232
 Alpha virt. eigenvalues --    1.18393   1.27873   1.29091   1.33357   1.36883
 Alpha virt. eigenvalues --    1.86171   2.23221
          Condensed to atoms (all electrons):
              1          2          3          4          5          6
     1  C    5.652015   0.364844   0.364844   0.128046  -0.039895  -0.039873
     2  H    0.364844   0.442571  -0.020361  -0.039896   0.001832  -0.002614
     3  H    0.364844  -0.020361   0.442599  -0.039884  -0.002615   0.001832
     4  C    0.128046  -0.039896  -0.039884   5.652008   0.364842   0.364845
     5  H   -0.039895   0.001832  -0.002615   0.364842   0.442580  -0.020365
     6  H   -0.039873  -0.002614   0.001832   0.364845  -0.020365   0.442589
     7  Cl  -0.053656   0.001755   0.001755   0.188742  -0.041376  -0.041427
     8  Cl   0.188741  -0.041370  -0.041432  -0.053653   0.001755   0.001754
              7          8
     1  C   -0.053656   0.188741
     2  H    0.001755  -0.041370
     3  H    0.001755  -0.041432
     4  C    0.188742  -0.053653
     5  H   -0.041376   0.001755
     6  H   -0.041427   0.001754
     7  Cl  16.980464  -0.014801
     8  Cl  -0.014801  16.980434
 Mulliken atomic charges:
              1
     1  C   -0.565067
     2  H    0.293238
     3  H    0.293262
     4  C   -0.565050
     5  H    0.293241
     6  H    0.293260
     7  Cl  -0.021456
     8  Cl  -0.021428
 Sum of Mulliken atomic charges =   0.00000
 Mulliken charges with hydrogens summed into heavy atoms:
              1
     1  C    0.021433
     4  C    0.021451
     7  Cl  -0.021456
     8  Cl  -0.021428
 Sum of Mulliken charges with hydrogens summed into heavy atoms =   0.00000
 Electronic spatial extent (au):  <R**2>=            580.2020
 Charge=              0.0000 electrons
 Dipole moment (field-independent basis, Debye):
    X=              0.0000    Y=              4.3735    Z=              0.0001  Tot=              4.3735
 Quadrupole moment (field-independent basis, Debye-Ang):
   XX=            -43.4195   YY=            -35.4234   ZZ=            -38.3941
   XY=             -0.0003   XZ=              0.0009   YZ=             -0.0001
 Traceless Quadrupole moment (field-independent basis, Debye-Ang):
   XX=             -4.3405   YY=              3.6557   ZZ=              0.6849
   XY=             -0.0003   XZ=              0.0009   YZ=             -0.0001
 Octapole moment (field-independent basis, Debye-Ang**2):
  XXX=              0.0001  YYY=             -0.3527  ZZZ=              0.0003  XYY=             -0.0002
  XXY=              3.9028  XXZ=             -0.0001  XZZ=              0.0001  YZZ=              3.0626
  YYZ=             -0.0002  XYZ=             -0.0004
 Hexadecapole moment (field-independent basis, Debye-Ang**3):
 XXXX=           -518.9968 YYYY=           -199.8116 ZZZZ=            -52.2496 XXXY=             -0.0018
 XXXZ=              0.0041 YYYX=             -0.0009 YYYZ=             -0.0008 ZZZX=              0.0023
 ZZZY=              0.0002 XXYY=           -106.5949 XXZZ=            -91.4122 YYZZ=            -38.9365
 XXYZ=             -0.0006 YYXZ=             -0.0013 ZZXY=             -0.0001
 N-N= 1.993195668207D+02 E-N=-2.757756605216D+03  KE= 9.913801641306D+02
 1|1|UNPC-DESKTOP-K2VF0AK|Scan|RHF|3-21G|C2H4Cl2|MELIH|06-Nov-2024|0||#
  opt=modredundant hf/3-21g geom=connectivity||Title Card Required||0,1
 |C,1.4271152401,0.3983517509,0.1590938966|H,1.7926501067,1.2581592774,
 -0.3710319227|H,1.8267684064,0.3758728399,1.1559165513|C,-0.1098984899
 ,0.3837125904,0.1848611219|H,-0.475314223,0.3544205969,1.1945694822|H,
 -0.5095433082,1.2358868754,-0.3328067713|Cl,-0.9361452192,-1.082348804
 1,-0.6432550651|Cl,2.2529543906,-1.05193403,-0.6966988678||Version=IA3
 2W-G09RevA.02|State=1-A|HF=-992.2109096,-992.2115187,-992.2132412,-992
 .2157797,-992.2186796,-992.2213891,-992.2233554,-992.2242018,-992.2239
 196,-992.2228665,-992.2215785,-992.2206023,-992.2203657,-992.2210561,-
 992.2225619,-992.2245177,-992.2264268,-992.2278057,-992.2283073,-992.2
 278057,-992.2264268,-992.2245176,-992.2225621,-992.2210561,-992.220365
 8,-992.2206024,-992.2215784,-992.2228666,-992.2239198,-992.224202,-992
 .2233555,-992.2213889,-992.2186796,-992.2157799,-992.2132411,-992.2115
 185,-992.2109096|RMSD=2.218e-009,7.237e-009,8.871e-009,8.753e-009,3.06
 6e-009,7.008e-009,4.160e-009,6.227e-009,6.639e-009,7.831e-009,9.351e-0
 09,1.954e-009,1.997e-009,2.091e-009,2.065e-009,1.904e-009,8.707e-009,5
 .419e-009,3.436e-009,4.985e-009,6.146e-009,7.725e-009,5.093e-009,3.596
 e-009,1.855e-009,3.359e-009,6.791e-009,1.565e-009,8.897e-009,8.618e-00
 9,5.263e-009,7.593e-009,7.596e-009,3.589e-009,8.525e-009,2.821e-009,9.
 423e-009|PG=C01 [X(C2H4Cl2)]||@


 WE HAVE SEEN THAT MAN ON THE AVERAGE DOES NOT LIVE ABOVE
 TWO-AND-TWENTY YEARS.  DURING THESE TWO AND TWENTY
 YEARS HE IS LIABLE TO TWO AND TWENTY THOUSAND EVILS,
 MANY OF WHICH ARE INCURABLE.  YET EVEN IN THIS DREADFUL STATE
 MEN STILL STRUT AND POSE ON THE STAGE OF LIFE.
 THEY MAKE LOVE AT THE RISK OF DESTRUCTION,
 INTRIGUE, CARRY ON WAR, AND FORM PROJECTS, JUST AS IF THEY
 WERE TO LIVE IN LUXURY AND HAPPINESS FOR A THOUSAND
 AGES.

                                              -- VOLTAIRE
 Job cpu time:  0 days  0 hours  1 minutes 16.0 seconds.
 File lengths (MBytes):  RWF=      5 Int=      0 D2E=      0 Chk=      3 Scr=      1
 Normal termination of Gaussian 09 at Wed Nov 06 00:44:30 2024.
