 Entering Link 1 = C:\G09W\l1.exe PID=      9644.
  
 Copyright (c) 1988,1990,1992,1993,1995,1998,2003,2009, Gaussian, Inc.
                  All Rights Reserved.
  
 This is part of the Gaussian(R) 09 program.  It is based on
 the Gaussian(R) 03 system (copyright 2003, Gaussian, Inc.),
 the Gaussian(R) 98 system (copyright 1998, Gaussian, Inc.),
 the Gaussian(R) 94 system (copyright 1995, Gaussian, Inc.),
 the Gaussian 92(TM) system (copyright 1992, Gaussian, Inc.),
 the Gaussian 90(TM) system (copyright 1990, Gaussian, Inc.),
 the Gaussian 88(TM) system (copyright 1988, Gaussian, Inc.),
 the Gaussian 86(TM) system (copyright 1986, Carnegie Mellon
 University), and the Gaussian 82(TM) system (copyright 1983,
 Carnegie Mellon University). Gaussian is a federally registered
 trademark of Gaussian, Inc.
  
 This software contains proprietary and confidential information,
 including trade secrets, belonging to Gaussian, Inc.
  
 This software is provided under written license and may be
 used, copied, transmitted, or stored only in accord with that
 written license.
  
 The following legend is applicable only to US Government
 contracts under FAR:
  
                    RESTRICTED RIGHTS LEGEND
  
 Use, reproduction and disclosure by the US Government is
 subject to restrictions as set forth in subparagraphs (a)
 and (c) of the Commercial Computer Software - Restricted
 Rights clause in FAR 52.227-19.
  
 Gaussian, Inc.
 340 Quinnipiac St., Bldg. 40, Wallingford CT 06492
  
  
 ---------------------------------------------------------------
 Warning -- This program may not be used in any manner that
 competes with the business of Gaussian, Inc. or will provide
 assistance to any competitor of Gaussian, Inc.  The licensee
 of this program is prohibited from giving any competitor of
 Gaussian, Inc. access to this program.  By using this program,
 the user acknowledges that Gaussian, Inc. is engaged in the
 business of creating and licensing software in the field of
 computational chemistry and represents and warrants to the
 licensee that it is not a competitor of Gaussian, Inc. and that
 it will not use this program in any manner prohibited above.
 ---------------------------------------------------------------
  

 Cite this work as:
 Gaussian 09, Revision A.02,
 M. J. Frisch, G. W. Trucks, H. B. Schlegel, G. E. Scuseria, 
 M. A. Robb, J. R. Cheeseman, G. Scalmani, V. Barone, B. Mennucci, 
 G. A. Petersson, H. Nakatsuji, M. Caricato, X. Li, H. P. Hratchian, 
 A. F. Izmaylov, J. Bloino, G. Zheng, J. L. Sonnenberg, M. Hada, 
 M. Ehara, K. Toyota, R. Fukuda, J. Hasegawa, M. Ishida, T. Nakajima, 
 Y. Honda, O. Kitao, H. Nakai, T. Vreven, J. A. Montgomery, Jr., 
 J. E. Peralta, F. Ogliaro, M. Bearpark, J. J. Heyd, E. Brothers, 
 K. N. Kudin, V. N. Staroverov, R. Kobayashi, J. Normand, 
 K. Raghavachari, A. Rendell, J. C. Burant, S. S. Iyengar, J. Tomasi, 
 M. Cossi, N. Rega, J. M. Millam, M. Klene, J. E. Knox, J. B. Cross, 
 V. Bakken, C. Adamo, J. Jaramillo, R. Gomperts, R. E. Stratmann, 
 O. Yazyev, A. J. Austin, R. Cammi, C. Pomelli, J. W. Ochterski, 
 R. L. Martin, K. Morokuma, V. G. Zakrzewski, G. A. Voth, 
 P. Salvador, J. J. Dannenberg, S. Dapprich, A. D. Daniels, 
 O. Farkas, J. B. Foresman, J. V. Ortiz, J. Cioslowski, 
 and D. J. Fox, Gaussian, Inc., Wallingford CT, 2009.
 
 ******************************************
 Gaussian 09:  IA32W-G09RevA.02 11-Jun-2009
                05-Nov-2024 
 ******************************************
 %chk=C:\Users\melih\Desktop\Gaussian\H2ClCCClH2\energy12.chk
 ---------------------------------------------
 # opt=modredundant hf/3-21g geom=connectivity
 ---------------------------------------------
 1/18=120,19=15,38=1,57=2/1,3;
 2/9=110,12=2,17=6,18=5,40=1/2;
 3/5=5,11=9,16=1,25=1,30=1,71=1/1,2,3;
 4//1;
 5/5=2,38=5/2;
 6/7=2,8=2,9=2,10=2,28=1/1;
 7//1,2,3,16;
 1/18=20,19=15/3(2);
 2/9=110/2;
 99//99;
 2/9=110/2;
 3/5=5,11=9,16=1,25=1,30=1,71=1/1,2,3;
 4/5=5,16=3/1;
 5/5=2,38=5/2;
 7//1,2,3,16;
 1/18=20,19=15/3(-5);
 2/9=110/2;
 6/7=2,8=2,9=2,10=2,19=2,28=1/1;
 99/9=1/99;
 -------------------
 Title Card Required
 -------------------
 Symbolic Z-matrix:
 Charge =  0 Multiplicity = 1
 C                     0.27982   0.71736   0.94229 
 H                    -0.06057   1.23297   1.81589 
 H                     1.34926   0.68305   0.94239 
 C                    -0.27982  -0.71736   0.94229 
 H                     0.06057  -1.23297   1.81589 
 H                    -1.34926  -0.68305   0.94239 
 Cl                    0.27982  -1.56537  -0.49483 
 Cl                   -0.27982   1.56537  -0.49483 
 
 The following ModRedundant input section has been read:
 D    8    1    4    7 S  36 10.000                                            

 GradGradGradGradGradGradGradGradGradGradGradGradGradGradGradGradGradGrad
 Berny optimization.
 Initialization pass.
                           ----------------------------
                           !    Initial Parameters    !
                           ! (Angstroms and Degrees)  !
 --------------------------                            --------------------------
 ! Name  Definition              Value          Derivative Info.                !
 --------------------------------------------------------------------------------
 ! R1    R(1,2)                  1.07           estimate D2E/DX2                !
 ! R2    R(1,3)                  1.07           estimate D2E/DX2                !
 ! R3    R(1,4)                  1.54           estimate D2E/DX2                !
 ! R4    R(1,8)                  1.76           estimate D2E/DX2                !
 ! R5    R(4,5)                  1.07           estimate D2E/DX2                !
 ! R6    R(4,6)                  1.07           estimate D2E/DX2                !
 ! R7    R(4,7)                  1.76           estimate D2E/DX2                !
 ! A1    A(2,1,3)              109.4712         estimate D2E/DX2                !
 ! A2    A(2,1,4)              109.4712         estimate D2E/DX2                !
 ! A3    A(2,1,8)              109.4712         estimate D2E/DX2                !
 ! A4    A(3,1,4)              109.4712         estimate D2E/DX2                !
 ! A5    A(3,1,8)              109.4713         estimate D2E/DX2                !
 ! A6    A(4,1,8)              109.4712         estimate D2E/DX2                !
 ! A7    A(1,4,5)              109.4712         estimate D2E/DX2                !
 ! A8    A(1,4,6)              109.4712         estimate D2E/DX2                !
 ! A9    A(1,4,7)              109.4712         estimate D2E/DX2                !
 ! A10   A(5,4,6)              109.4712         estimate D2E/DX2                !
 ! A11   A(5,4,7)              109.4712         estimate D2E/DX2                !
 ! A12   A(6,4,7)              109.4713         estimate D2E/DX2                !
 ! D1    D(2,1,4,5)            -60.0112         estimate D2E/DX2                !
 ! D2    D(2,1,4,6)             59.9889         estimate D2E/DX2                !
 ! D3    D(2,1,4,7)            179.9889         estimate D2E/DX2                !
 ! D4    D(3,1,4,5)             59.9889         estimate D2E/DX2                !
 ! D5    D(3,1,4,6)            179.9889         estimate D2E/DX2                !
 ! D6    D(3,1,4,7)            -60.0111         estimate D2E/DX2                !
 ! D7    D(8,1,4,5)            179.9889         estimate D2E/DX2                !
 ! D8    D(8,1,4,6)            -60.0111         estimate D2E/DX2                !
 ! D9    D(8,1,4,7)             59.9889         Scan                            !
 --------------------------------------------------------------------------------
 Trust Radius=3.00D-01 FncErr=1.00D-07 GrdErr=1.00D-07
 Number of optimizations in scan=  37
 Number of steps in this run=  38 maximum allowed number of steps= 100.
 GradGradGradGradGradGradGradGradGradGradGradGradGradGradGradGradGradGrad

                          Input orientation:                          
 ---------------------------------------------------------------------
 Center     Atomic      Atomic             Coordinates (Angstroms)
 Number     Number       Type             X           Y           Z
 ---------------------------------------------------------------------
      1          6           0        0.279815    0.717359    0.942290
      2          1           0       -0.060572    1.232971    1.815892
      3          1           0        1.349264    0.683046    0.942388
      4          6           0       -0.279815   -0.717359    0.942290
      5          1           0        0.060572   -1.232971    1.815892
      6          1           0       -1.349264   -0.683046    0.942388
      7         17           0        0.279815   -1.565366   -0.494825
      8         17           0       -0.279815    1.565366   -0.494825
 ---------------------------------------------------------------------
                    Distance matrix (angstroms):
                    1          2          3          4          5
     1  C    0.000000
     2  H    1.070000   0.000000
     3  H    1.069999   1.747302   0.000000
     4  C    1.540000   2.148263   2.148263   0.000000
     5  H    2.148263   2.468916   2.468777   1.070000   0.000000
     6  H    2.148263   2.468777   3.024609   1.069999   1.747302
     7  Cl   2.697431   3.644992   2.874832   1.760000   2.344774
     8  Cl   1.760000   2.344774   2.344775   2.697431   3.644992
                    6          7          8
     6  H    0.000000
     7  Cl   2.344775   0.000000
     8  Cl   2.874832   3.180357   0.000000
 Stoichiometry    C2H4Cl2
 Framework group  C2[X(C2H4Cl2)]
 Deg. of freedom    10
 Full point group                 C2      NOp   2
 Largest Abelian subgroup         C2      NOp   2
 Largest concise Abelian subgroup C2      NOp   2
                         Standard orientation:                         
 ---------------------------------------------------------------------
 Center     Atomic      Atomic             Coordinates (Angstroms)
 Number     Number       Type             X           Y           Z
 ---------------------------------------------------------------------
      1          6           0       -0.628668   -0.444609    0.942290
      2          1           0       -0.628571   -1.062443    1.815892
      3          1           0       -1.502367    0.173088    0.942388
      4          6           0        0.628668    0.444609    0.942290
      5          1           0        0.628571    1.062443    1.815892
      6          1           0        1.502367   -0.173088    0.942388
      7         17           0        0.628668    1.460631   -0.494825
      8         17           0       -0.628668   -1.460631   -0.494825
 ---------------------------------------------------------------------
 Rotational constants (GHZ):      9.3157461      2.5426553      2.1287414
 Standard basis: 3-21G (6D, 7F)
 There are    26 symmetry adapted basis functions of A   symmetry.
 There are    26 symmetry adapted basis functions of B   symmetry.
 Integral buffers will be    262144 words long.
 Raffenetti 1 integral format.
 Two-electron integral symmetry is turned on.
    52 basis functions,    96 primitive gaussians,    52 cartesian basis functions
    25 alpha electrons       25 beta electrons
       nuclear repulsion energy       207.5596776337 Hartrees.
 NAtoms=    8 NActive=    8 NUniq=    4 SFac= 3.00D+00 NAtFMM=   80 NAOKFM=F Big=F
 One-electron integrals computed using PRISM.
 NBasis=    52 RedAO= T  NBF=    26    26
 NBsUse=    52 1.00D-06 NBFU=    26    26
 Harris functional with IExCor=  205 diagonalized for initial guess.
 ExpMin= 1.67D-01 ExpMax= 1.38D+03 ExpMxC= 1.38D+03 IAcc=1 IRadAn=         1 AccDes= 0.00D+00
 HarFok:  IExCor=  205 AccDes= 0.00D+00 IRadAn=         1 IDoV= 1
 ScaDFX=  1.000000  1.000000  1.000000  1.000000
 FoFCou: FMM=F IPFlag=           0 FMFlag=      100000 FMFlg1=           0
         NFxFlg=           0 DoJE=T BraDBF=F KetDBF=T FulRan=T
         Omega=  0.000000  0.000000  1.000000  0.000000  0.000000 ICntrl=     500 IOpCl=  0
         NMat0=    1 NMatS0=    1 NMatT0=    0 NMatD0=    1 NMtDS0=    0 NMtDT0=    0
         I1Cent=           4 NGrid=           0.
 Petite list used in FoFCou.
 Initial guess orbital symmetries:
       Occupied  (B) (A) (B) (A) (B) (A) (B) (A) (B) (A) (B) (A)
                 (A) (B) (A) (B) (B) (A) (A) (A) (B) (A) (B) (A)
                 (B)
       Virtual   (A) (B) (A) (B) (B) (B) (A) (A) (B) (B) (A) (B)
                 (A) (A) (B) (B) (A) (A) (B) (A) (B) (A) (B) (A)
                 (B) (A) (B)
 The electronic state of the initial guess is 1-A.
 Requested convergence on RMS density matrix=1.00D-08 within 128 cycles.
 Requested convergence on MAX density matrix=1.00D-06.
 Requested convergence on             energy=1.00D-06.
 No special actions if energy rises.
 Keep R1 ints in memory in canonical form, NReq=1777073.
 SCF Done:  E(RHF) =  -992.211391538     A.U. after   11 cycles
             Convg  =    0.1490D-08             -V/T =  2.0004

 **********************************************************************

            Population analysis using the SCF density.

 **********************************************************************

 Orbital symmetries:
       Occupied  (B) (A) (B) (A) (B) (A) (B) (A) (B) (A) (B) (A)
                 (A) (B) (A) (B) (B) (A) (A) (A) (B) (B) (A) (A)
                 (B)
       Virtual   (A) (B) (A) (B) (B) (A) (B) (A) (B) (B) (A) (A)
                 (B) (A) (B) (B) (A) (A) (B) (A) (B) (B) (A) (A)
                 (B) (A) (B)
 The electronic state is 1-A.
 Alpha  occ. eigenvalues -- -104.09967-104.09937 -11.26045 -11.26029 -10.49657
 Alpha  occ. eigenvalues --  -10.49560  -7.96011  -7.95991  -7.95548  -7.95537
 Alpha  occ. eigenvalues --   -7.95525  -7.95510  -1.20194  -1.13011  -0.98753
 Alpha  occ. eigenvalues --   -0.85916  -0.69011  -0.67038  -0.60543  -0.55287
 Alpha  occ. eigenvalues --   -0.53475  -0.45729  -0.45418  -0.43742  -0.43531
 Alpha virt. eigenvalues --    0.18368   0.22749   0.26173   0.29306   0.31504
 Alpha virt. eigenvalues --    0.32165   0.35348   0.67495   0.73676   0.78088
 Alpha virt. eigenvalues --    0.78746   0.81781   0.82511   0.83216   0.92950
 Alpha virt. eigenvalues --    0.94285   0.97139   0.97881   1.08123   1.12455
 Alpha virt. eigenvalues --    1.18606   1.32043   1.32527   1.33479   1.38410
 Alpha virt. eigenvalues --    1.93745   2.25189
          Condensed to atoms (all electrons):
              1          2          3          4          5          6
     1  C    5.794201   0.358164   0.361628   0.140691  -0.035185  -0.043329
     2  H    0.358164   0.450958  -0.020828  -0.035185  -0.000072  -0.001020
     3  H    0.361628  -0.020828   0.447868  -0.043329  -0.001020   0.002903
     4  C    0.140691  -0.035185  -0.043329   5.794201   0.358164   0.361628
     5  H   -0.035185  -0.000072  -0.001020   0.358164   0.450958  -0.020828
     6  H   -0.043329  -0.001020   0.002903   0.361628  -0.020828   0.447868
     7  Cl  -0.097764   0.003497   0.001819   0.147422  -0.043306  -0.043816
     8  Cl   0.147422  -0.043306  -0.043816  -0.097764   0.003497   0.001819
              7          8
     1  C   -0.097764   0.147422
     2  H    0.003497  -0.043306
     3  H    0.001819  -0.043816
     4  C    0.147422  -0.097764
     5  H   -0.043306   0.003497
     6  H   -0.043816   0.001819
     7  Cl  16.996186  -0.007302
     8  Cl  -0.007302  16.996186
 Mulliken atomic charges:
              1
     1  C   -0.625829
     2  H    0.287792
     3  H    0.294775
     4  C   -0.625829
     5  H    0.287792
     6  H    0.294775
     7  Cl   0.043262
     8  Cl   0.043262
 Sum of Mulliken atomic charges =   0.00000
 Mulliken charges with hydrogens summed into heavy atoms:
              1
     1  C   -0.043262
     4  C   -0.043262
     7  Cl   0.043262
     8  Cl   0.043262
 Sum of Mulliken charges with hydrogens summed into heavy atoms =   0.00000
 Electronic spatial extent (au):  <R**2>=            545.2636
 Charge=              0.0000 electrons
 Dipole moment (field-independent basis, Debye):
    X=              0.0000    Y=              0.0000    Z=              3.6296  Tot=              3.6296
 Quadrupole moment (field-independent basis, Debye-Ang):
   XX=            -38.5028   YY=            -43.5171   ZZ=            -36.2685
   XY=             -1.9128   XZ=              0.0000   YZ=              0.0000
 Traceless Quadrupole moment (field-independent basis, Debye-Ang):
   XX=              0.9266   YY=             -4.0876   ZZ=              3.1610
   XY=             -1.9128   XZ=              0.0000   YZ=              0.0000
 Octapole moment (field-independent basis, Debye-Ang**2):
  XXX=              0.0000  YYY=              0.0000  ZZZ=              1.0109  XYY=              0.0000
  XXY=              0.0000  XXZ=              2.2295  XZZ=              0.0000  YZZ=              0.0000
  YYZ=              1.4924  XYZ=              1.6155
 Hexadecapole moment (field-independent basis, Debye-Ang**3):
 XXXX=           -146.5589 YYYY=           -408.4198 ZZZZ=           -156.3262 XXXY=            -87.2631
 XXXZ=              0.0000 YYYX=            -87.0397 YYYZ=              0.0000 ZZZX=              0.0000
 ZZZY=              0.0000 XXYY=            -94.9764 XXZZ=            -52.3599 YYZZ=            -83.4113
 XXYZ=              0.0000 YYXZ=              0.0000 ZZXY=            -24.6070
 N-N= 2.075596776337D+02 E-N=-2.774443150093D+03  KE= 9.918403130112D+02
 Symmetry A    KE= 4.969024858174D+02
 Symmetry B    KE= 4.949378271937D+02
 Calling FoFJK, ICntrl=      2127 FMM=F ISym2X=1 I1Cent= 0 IOpClX= 0 NMat=1 NMatS=1 NMatT=0.
 ***** Axes restored to original set *****
 -------------------------------------------------------------------
 Center     Atomic                   Forces (Hartrees/Bohr)
 Number     Number              X              Y              Z
 -------------------------------------------------------------------
      1        6           0.009082370   -0.038940733    0.036007654
      2        1          -0.003339435    0.004708943    0.002800686
      3        1           0.004813211    0.002606927   -0.002983466
      4        6          -0.009082370    0.038940733    0.036007654
      5        1           0.003339435   -0.004708943    0.002800686
      6        1          -0.004813211   -0.002606927   -0.002983466
      7       17           0.014129382   -0.031335411   -0.035824875
      8       17          -0.014129382    0.031335411   -0.035824875
 -------------------------------------------------------------------
 Cartesian Forces:  Max     0.038940733 RMS     0.021292456

 GradGradGradGradGradGradGradGradGradGradGradGradGradGradGradGradGradGrad
 Berny optimization.
 Internal  Forces:  Max     0.048843366 RMS     0.014575590
 Search for a local minimum.
 Step number   1 out of a maximum of   38 on scan point     1 out of    37
 All quantities printed in internal units (Hartrees-Bohrs-Radians)
 Mixed Optimization -- RFO/linear search
 Second derivative matrix not updated -- first step.
     Eigenvalues ---    0.01756   0.05720   0.05976   0.05976   0.16000
     Eigenvalues ---    0.16000   0.16000   0.16000   0.22461   0.22461
     Eigenvalues ---    0.28519   0.29539   0.29539   0.37230   0.37230
     Eigenvalues ---    0.37230   0.372301000.000001000.000001000.00000
     Eigenvalues --- 1000.000001000.000001000.000001000.000001000.00000
     Eigenvalues --- 1000.000001000.000001000.00000
 RFO step:  Lambda=-1.96594497D-02 EMin= 1.75616246D-02
 Linear search not attempted -- first point.
 Iteration  1 RMS(Cart)=  0.07440988 RMS(Int)=  0.00182024
 Iteration  2 RMS(Cart)=  0.00400304 RMS(Int)=  0.00025758
 Iteration  3 RMS(Cart)=  0.00001040 RMS(Int)=  0.00025742
 Iteration  4 RMS(Cart)=  0.00000000 RMS(Int)=  0.00025742
 Iteration  1 RMS(Cart)=  0.00003091 RMS(Int)=  0.00003341
 Iteration  2 RMS(Cart)=  0.00001810 RMS(Int)=  0.00003725
 Iteration  3 RMS(Cart)=  0.00001060 RMS(Int)=  0.00004240
 Iteration  4 RMS(Cart)=  0.00000621 RMS(Int)=  0.00004609
 Iteration  5 RMS(Cart)=  0.00000364 RMS(Int)=  0.00004843
 Iteration  6 RMS(Cart)=  0.00000213 RMS(Int)=  0.00004985
 Iteration  7 RMS(Cart)=  0.00000125 RMS(Int)=  0.00005069
 Iteration  8 RMS(Cart)=  0.00000073 RMS(Int)=  0.00005120
 ClnCor:  largest displacement from symmetrization is 1.15D-12 for atom     8.
 Variable       Old X    -DE/DX   Delta X   Delta X   Delta X     New X
                                 (Linear)    (Quad)   (Total)
    R1        2.02201   0.00562   0.00000   0.01433   0.01433   2.03634
    R2        2.02201   0.00473   0.00000   0.01206   0.01206   2.03407
    R3        2.91018  -0.00157   0.00000  -0.00514  -0.00514   2.90504
    R4        3.32592   0.04884   0.00000   0.15503   0.15503   3.48095
    R5        2.02201   0.00562   0.00000   0.01433   0.01433   2.03634
    R6        2.02201   0.00473   0.00000   0.01206   0.01206   2.03407
    R7        3.32592   0.04884   0.00000   0.15503   0.15503   3.48095
    A1        1.91063  -0.00037   0.00000  -0.00206  -0.00202   1.90861
    A2        1.91063  -0.00233   0.00000  -0.00402  -0.00408   1.90656
    A3        1.91063  -0.00987   0.00000  -0.03704  -0.03717   1.87346
    A4        1.91063   0.00156   0.00000   0.00922   0.00883   1.91947
    A5        1.91063  -0.00767   0.00000  -0.04163  -0.04235   1.86829
    A6        1.91063   0.01867   0.00000   0.07554   0.07509   1.98573
    A7        1.91063  -0.00233   0.00000  -0.00402  -0.00408   1.90656
    A8        1.91063   0.00156   0.00000   0.00922   0.00883   1.91947
    A9        1.91063   0.01867   0.00000   0.07554   0.07509   1.98573
   A10        1.91063  -0.00037   0.00000  -0.00206  -0.00202   1.90861
   A11        1.91063  -0.00987   0.00000  -0.03704  -0.03717   1.87346
   A12        1.91063  -0.00767   0.00000  -0.04163  -0.04235   1.86829
    D1       -1.04739   0.00043   0.00000  -0.00315  -0.00301  -1.05040
    D2        1.04700  -0.00048   0.00000  -0.00250  -0.00259   1.04441
    D3        3.14140   0.00252   0.00000  -0.00158  -0.00150   3.13990
    D4        1.04700  -0.00048   0.00000  -0.00250  -0.00259   1.04441
    D5        3.14140  -0.00140   0.00000  -0.00184  -0.00217   3.13923
    D6       -1.04739   0.00160   0.00000  -0.00092  -0.00109  -1.04848
    D7        3.14140   0.00252   0.00000  -0.00158  -0.00150   3.13990
    D8       -1.04739   0.00160   0.00000  -0.00092  -0.00109  -1.04848
    D9        1.04700   0.00460   0.00000   0.00000   0.00000   1.04701
         Item               Value     Threshold  Converged?
 Maximum Force            0.048843     0.000450     NO 
 RMS     Force            0.014777     0.000300     NO 
 Maximum Displacement     0.274891     0.001800     NO 
 RMS     Displacement     0.077315     0.001200     NO 
 Predicted change in Energy=-1.048806D-02
 GradGradGradGradGradGradGradGradGradGradGradGradGradGradGradGradGradGrad

                          Input orientation:                          
 ---------------------------------------------------------------------
 Center     Atomic      Atomic             Coordinates (Angstroms)
 Number     Number       Type             X           Y           Z
 ---------------------------------------------------------------------
      1          6           0        0.269709    0.719766    0.946057
      2          1           0       -0.083388    1.231238    1.826345
      3          1           0        1.346037    0.709162    0.947254
      4          6           0       -0.269709   -0.719766    0.946057
      5          1           0        0.083388   -1.231238    1.826345
      6          1           0       -1.346037   -0.709162    0.947254
      7         17           0        0.258871   -1.710832   -0.513911
      8         17           0       -0.258871    1.710832   -0.513911
 ---------------------------------------------------------------------
                    Distance matrix (angstroms):
                    1          2          3          4          5
     1  C    0.000000
     2  H    1.077585   0.000000
     3  H    1.076381   1.757447   0.000000
     4  C    1.537278   2.148497   2.156959   0.000000
     5  H    2.148497   2.468117   2.476336   1.077585   0.000000
     6  H    2.156959   2.476336   3.042845   1.076381   1.757447
     7  Cl   2.835389   3.774879   3.028746   1.842040   2.395329
     8  Cl   1.842040   2.395329   2.390413   2.835389   3.774879
                    6          7          8
     6  H    0.000000
     7  Cl   2.390413   0.000000
     8  Cl   3.028746   3.460613   0.000000
 Stoichiometry    C2H4Cl2
 Framework group  C2[X(C2H4Cl2)]
 Deg. of freedom    10
 Full point group                 C2      NOp   2
 Largest Abelian subgroup         C2      NOp   2
 Largest concise Abelian subgroup C2      NOp   2
                         Standard orientation:                         
 ---------------------------------------------------------------------
 Center     Atomic      Atomic             Coordinates (Angstroms)
 Number     Number       Type             X           Y           Z
 ---------------------------------------------------------------------
      1          6           0       -0.576696   -0.508161    0.957518
      2          1           0       -0.505839   -1.125623    1.837807
      3          1           0       -1.521403    0.007711    0.958716
      4          6           0        0.576696    0.508161    0.957518
      5          1           0        0.505839    1.125623    1.837807
      6          1           0        1.521403   -0.007711    0.958716
      7         17           0        0.576696    1.631374   -0.502449
      8         17           0       -0.576696   -1.631374   -0.502449
 ---------------------------------------------------------------------
 Rotational constants (GHZ):      9.1625577      2.1848999      1.8585470
 Standard basis: 3-21G (6D, 7F)
 There are    26 symmetry adapted basis functions of A   symmetry.
 There are    26 symmetry adapted basis functions of B   symmetry.
 Integral buffers will be    262144 words long.
 Raffenetti 1 integral format.
 Two-electron integral symmetry is turned on.
    52 basis functions,    96 primitive gaussians,    52 cartesian basis functions
    25 alpha electrons       25 beta electrons
       nuclear repulsion energy       198.1170134253 Hartrees.
 NAtoms=    8 NActive=    8 NUniq=    4 SFac= 3.00D+00 NAtFMM=   80 NAOKFM=F Big=F
 One-electron integrals computed using PRISM.
 NBasis=    52 RedAO= T  NBF=    26    26
 NBsUse=    52 1.00D-06 NBFU=    26    26
 Initial guess read from the read-write file.
 B after Tr=     0.000000    0.000000    0.000000
         Rot=    1.000000    0.000000    0.000000    0.000000 Ang=   0.00 deg.
 Initial guess orbital symmetries:
       Occupied  (B) (A) (B) (A) (B) (A) (B) (A) (B) (A) (B) (A)
                 (A) (B) (A) (B) (B) (A) (A) (A) (B) (B) (A) (A)
                 (B)
       Virtual   (A) (B) (A) (B) (B) (A) (B) (A) (B) (B) (A) (A)
                 (B) (A) (B) (B) (A) (A) (B) (A) (B) (B) (A) (A)
                 (B) (A) (B)
 Harris functional with IExCor=  205 diagonalized for initial guess.
 ExpMin= 1.67D-01 ExpMax= 1.38D+03 ExpMxC= 1.38D+03 IAcc=1 IRadAn=         1 AccDes= 0.00D+00
 HarFok:  IExCor=  205 AccDes= 0.00D+00 IRadAn=         1 IDoV= 1
 ScaDFX=  1.000000  1.000000  1.000000  1.000000
 FoFCou: FMM=F IPFlag=           0 FMFlag=      100000 FMFlg1=           0
         NFxFlg=           0 DoJE=T BraDBF=F KetDBF=T FulRan=T
         Omega=  0.000000  0.000000  1.000000  0.000000  0.000000 ICntrl=     500 IOpCl=  0
         NMat0=    1 NMatS0=    1 NMatT0=    0 NMatD0=    1 NMtDS0=    0 NMtDT0=    0
         I1Cent=           4 NGrid=           0.
 Petite list used in FoFCou.
 Requested convergence on RMS density matrix=1.00D-08 within 128 cycles.
 Requested convergence on MAX density matrix=1.00D-06.
 Requested convergence on             energy=1.00D-06.
 No special actions if energy rises.
 Keep R1 ints in memory in canonical form, NReq=1777073.
 SCF Done:  E(RHF) =  -992.221265159     A.U. after   11 cycles
             Convg  =    0.8080D-08             -V/T =  2.0008
 Calling FoFJK, ICntrl=      2127 FMM=F ISym2X=1 I1Cent= 0 IOpClX= 0 NMat=1 NMatS=1 NMatT=0.
 ***** Axes restored to original set *****
 -------------------------------------------------------------------
 Center     Atomic                   Forces (Hartrees/Bohr)
 Number     Number              X              Y              Z
 -------------------------------------------------------------------
      1        6           0.011618627   -0.022966052    0.011697282
      2        1          -0.002554125    0.001235999   -0.002109656
      3        1          -0.000358261    0.002809309   -0.003415740
      4        6          -0.011618627    0.022966052    0.011697282
      5        1           0.002554125   -0.001235999   -0.002109656
      6        1           0.000358261   -0.002809309   -0.003415740
      7       17           0.004833186   -0.003048208   -0.006171887
      8       17          -0.004833186    0.003048208   -0.006171887
 -------------------------------------------------------------------
 Cartesian Forces:  Max     0.022966052 RMS     0.008670792

 GradGradGradGradGradGradGradGradGradGradGradGradGradGradGradGradGradGrad
 Berny optimization.
 Using GEDIIS/GDIIS optimizer.
 Internal  Forces:  Max     0.013504277 RMS     0.004512330
 Search for a local minimum.
 Step number   2 out of a maximum of   38 on scan point     1 out of    37
 All quantities printed in internal units (Hartrees-Bohrs-Radians)
 Mixed Optimization -- RFO/linear search
 Update second derivatives using D2CorX and points    1    2
 DE= -9.87D-03 DEPred=-1.05D-02 R= 9.41D-01
 SS=  1.41D+00  RLast= 2.58D-01 DXNew= 5.0454D-01 7.7455D-01
 Trust test= 9.41D-01 RLast= 2.58D-01 DXMaxT set to 5.05D-01
 Use linear search instead of GDIIS.
     Eigenvalues ---    0.01579   0.05245   0.05706   0.05874   0.15331
     Eigenvalues ---    0.16000   0.16000   0.16011   0.22371   0.22384
     Eigenvalues ---    0.25549   0.29539   0.34581   0.37230   0.37230
     Eigenvalues ---    0.37230   0.378991000.000001000.000001000.00000
     Eigenvalues --- 1000.000001000.000001000.000001000.000001000.00000
     Eigenvalues --- 1000.000001000.000001000.00000
 RFO step:  Lambda=-3.56246659D-03 EMin= 1.57891425D-02
 Quartic linear search produced a step of  0.10388.
 Iteration  1 RMS(Cart)=  0.02881656 RMS(Int)=  0.00091353
 Iteration  2 RMS(Cart)=  0.00088735 RMS(Int)=  0.00061203
 Iteration  3 RMS(Cart)=  0.00000031 RMS(Int)=  0.00061203
 Iteration  1 RMS(Cart)=  0.00004933 RMS(Int)=  0.00005178
 Iteration  2 RMS(Cart)=  0.00002918 RMS(Int)=  0.00005769
 Iteration  3 RMS(Cart)=  0.00001726 RMS(Int)=  0.00006574
 Iteration  4 RMS(Cart)=  0.00001021 RMS(Int)=  0.00007157
 Iteration  5 RMS(Cart)=  0.00000604 RMS(Int)=  0.00007530
 Iteration  6 RMS(Cart)=  0.00000357 RMS(Int)=  0.00007759
 Iteration  7 RMS(Cart)=  0.00000211 RMS(Int)=  0.00007897
 Iteration  8 RMS(Cart)=  0.00000125 RMS(Int)=  0.00007980
 Iteration  9 RMS(Cart)=  0.00000074 RMS(Int)=  0.00008029
 ClnCor:  largest displacement from symmetrization is 3.06D-11 for atom     6.
 Variable       Old X    -DE/DX   Delta X   Delta X   Delta X     New X
                                 (Linear)    (Quad)   (Total)
    R1        2.03634  -0.00030   0.00149   0.00035   0.00184   2.03818
    R2        2.03407  -0.00039   0.00125  -0.00011   0.00114   2.03521
    R3        2.90504  -0.01350  -0.00053  -0.05195  -0.05248   2.85255
    R4        3.48095   0.00792   0.01610   0.04288   0.05899   3.53994
    R5        2.03634  -0.00030   0.00149   0.00035   0.00184   2.03818
    R6        2.03407  -0.00039   0.00125  -0.00011   0.00114   2.03521
    R7        3.48095   0.00792   0.01610   0.04288   0.05899   3.53994
    A1        1.90861   0.00017  -0.00021   0.03159   0.02984   1.93845
    A2        1.90656   0.00094  -0.00042   0.01084   0.00933   1.91589
    A3        1.87346   0.00015  -0.00386  -0.02164  -0.02590   1.84756
    A4        1.91947   0.00596   0.00092   0.04387   0.04422   1.96368
    A5        1.86829   0.00030  -0.00440  -0.02448  -0.02836   1.83993
    A6        1.98573  -0.00750   0.00780  -0.03957  -0.03169   1.95404
    A7        1.90656   0.00094  -0.00042   0.01084   0.00933   1.91589
    A8        1.91947   0.00596   0.00092   0.04387   0.04422   1.96368
    A9        1.98573  -0.00750   0.00780  -0.03957  -0.03169   1.95404
   A10        1.90861   0.00017  -0.00021   0.03159   0.02984   1.93845
   A11        1.87346   0.00015  -0.00386  -0.02164  -0.02590   1.84756
   A12        1.86829   0.00030  -0.00440  -0.02448  -0.02836   1.83993
    D1       -1.05040  -0.00508  -0.00031  -0.09170  -0.09268  -1.14308
    D2        1.04441  -0.00063  -0.00027  -0.01926  -0.01938   1.02503
    D3        3.13990  -0.00101  -0.00016  -0.04585  -0.04634   3.09355
    D4        1.04441  -0.00063  -0.00027  -0.01926  -0.01938   1.02503
    D5        3.13923   0.00382  -0.00023   0.05317   0.05391  -3.09005
    D6       -1.04848   0.00344  -0.00011   0.02659   0.02695  -1.02152
    D7        3.13990  -0.00101  -0.00016  -0.04585  -0.04634   3.09355
    D8       -1.04848   0.00344  -0.00011   0.02659   0.02695  -1.02152
    D9        1.04701   0.00306   0.00000   0.00000  -0.00001   1.04700
         Item               Value     Threshold  Converged?
 Maximum Force            0.013504     0.000450     NO 
 RMS     Force            0.004503     0.000300     NO 
 Maximum Displacement     0.068803     0.001800     NO 
 RMS     Displacement     0.028881     0.001200     NO 
 Predicted change in Energy=-1.843766D-03
 GradGradGradGradGradGradGradGradGradGradGradGradGradGradGradGradGradGrad

                          Input orientation:                          
 ---------------------------------------------------------------------
 Center     Atomic      Atomic             Coordinates (Angstroms)
 Number     Number       Type             X           Y           Z
 ---------------------------------------------------------------------
      1          6           0        0.282209    0.700008    0.970603
      2          1           0       -0.090572    1.243684    1.824262
      3          1           0        1.358837    0.710543    0.944963
      4          6           0       -0.282209   -0.700008    0.970603
      5          1           0        0.090572   -1.243684    1.824262
      6          1           0       -1.358837   -0.710543    0.944963
      7         17           0        0.261414   -1.674423   -0.534082
      8         17           0       -0.261414    1.674423   -0.534082
 ---------------------------------------------------------------------
                    Distance matrix (angstroms):
                    1          2          3          4          5
     1  C    0.000000
     2  H    1.078556   0.000000
     3  H    1.076985   1.777130   0.000000
     4  C    1.509507   2.131525   2.164103   0.000000
     5  H    2.131525   2.493955   2.490114   1.078556   0.000000
     6  H    2.164103   2.490114   3.066796   1.076985   1.777130
     7  Cl   2.811126   3.768425   3.013300   1.873256   2.403437
     8  Cl   1.873256   2.403437   2.396216   2.811126   3.768425
                    6          7          8
     6  H    0.000000
     7  Cl   2.396216   0.000000
     8  Cl   3.013300   3.389412   0.000000
 Stoichiometry    C2H4Cl2
 Framework group  C2[X(C2H4Cl2)]
 Deg. of freedom    10
 Full point group                 C2      NOp   2
 Largest Abelian subgroup         C2      NOp   2
 Largest concise Abelian subgroup C2      NOp   2
                         Standard orientation:                         
 ---------------------------------------------------------------------
 Center     Atomic      Atomic             Coordinates (Angstroms)
 Number     Number       Type             X           Y           Z
 ---------------------------------------------------------------------
      1          6           0       -0.587496   -0.473815    0.990065
      2          1           0       -0.526833   -1.130221    1.843724
      3          1           0       -1.532836    0.041522    0.964425
      4          6           0        0.587496    0.473815    0.990065
      5          1           0        0.526833    1.130221    1.843724
      6          1           0        1.532836   -0.041522    0.964425
      7         17           0        0.587496    1.589615   -0.514620
      8         17           0       -0.587496   -1.589615   -0.514620
 ---------------------------------------------------------------------
 Rotational constants (GHZ):      8.7271850      2.2723019      1.9058916
 Standard basis: 3-21G (6D, 7F)
 There are    26 symmetry adapted basis functions of A   symmetry.
 There are    26 symmetry adapted basis functions of B   symmetry.
 Integral buffers will be    262144 words long.
 Raffenetti 1 integral format.
 Two-electron integral symmetry is turned on.
    52 basis functions,    96 primitive gaussians,    52 cartesian basis functions
    25 alpha electrons       25 beta electrons
       nuclear repulsion energy       198.6130055292 Hartrees.
 NAtoms=    8 NActive=    8 NUniq=    4 SFac= 3.00D+00 NAtFMM=   80 NAOKFM=F Big=F
 One-electron integrals computed using PRISM.
 NBasis=    52 RedAO= T  NBF=    26    26
 NBsUse=    52 1.00D-06 NBFU=    26    26
 Initial guess read from the read-write file.
 B after Tr=     0.000000    0.000000    0.000000
         Rot=    1.000000    0.000000    0.000000    0.000000 Ang=   0.00 deg.
 Initial guess orbital symmetries:
       Occupied  (B) (A) (B) (A) (B) (A) (B) (A) (B) (A) (B) (A)
                 (A) (B) (A) (B) (B) (A) (A) (A) (B) (B) (A) (B)
                 (A)
       Virtual   (A) (B) (A) (B) (B) (A) (B) (A) (B) (A) (B) (A)
                 (B) (A) (B) (B) (A) (A) (B) (A) (B) (B) (A) (A)
                 (B) (A) (B)
 Harris functional with IExCor=  205 diagonalized for initial guess.
 ExpMin= 1.67D-01 ExpMax= 1.38D+03 ExpMxC= 1.38D+03 IAcc=1 IRadAn=         1 AccDes= 0.00D+00
 HarFok:  IExCor=  205 AccDes= 0.00D+00 IRadAn=         1 IDoV= 1
 ScaDFX=  1.000000  1.000000  1.000000  1.000000
 FoFCou: FMM=F IPFlag=           0 FMFlag=      100000 FMFlg1=           0
         NFxFlg=           0 DoJE=T BraDBF=F KetDBF=T FulRan=T
         Omega=  0.000000  0.000000  1.000000  0.000000  0.000000 ICntrl=     500 IOpCl=  0
         NMat0=    1 NMatS0=    1 NMatT0=    0 NMatD0=    1 NMtDS0=    0 NMtDT0=    0
         I1Cent=           4 NGrid=           0.
 Petite list used in FoFCou.
 Requested convergence on RMS density matrix=1.00D-08 within 128 cycles.
 Requested convergence on MAX density matrix=1.00D-06.
 Requested convergence on             energy=1.00D-06.
 No special actions if energy rises.
 Keep R1 ints in memory in canonical form, NReq=1777073.
 SCF Done:  E(RHF) =  -992.223250708     A.U. after   10 cycles
             Convg  =    0.3586D-08             -V/T =  2.0008
 Calling FoFJK, ICntrl=      2127 FMM=F ISym2X=1 I1Cent= 0 IOpClX= 0 NMat=1 NMatS=1 NMatT=0.
 ***** Axes restored to original set *****
 -------------------------------------------------------------------
 Center     Atomic                   Forces (Hartrees/Bohr)
 Number     Number              X              Y              Z
 -------------------------------------------------------------------
      1        6           0.004412251   -0.002803641    0.001600635
      2        1           0.000672797    0.000873134   -0.001611347
      3        1          -0.002040115   -0.000237883   -0.000448477
      4        6          -0.004412251    0.002803641    0.001600635
      5        1          -0.000672797   -0.000873134   -0.001611347
      6        1           0.002040115    0.000237883   -0.000448477
      7       17           0.002361758   -0.001091289    0.000459188
      8       17          -0.002361758    0.001091289    0.000459188
 -------------------------------------------------------------------
 Cartesian Forces:  Max     0.004412251 RMS     0.001938670

 GradGradGradGradGradGradGradGradGradGradGradGradGradGradGradGradGradGrad
 Berny optimization.
 Using GEDIIS/GDIIS optimizer.
 Internal  Forces:  Max     0.002808570 RMS     0.001335357
 Search for a local minimum.
 Step number   3 out of a maximum of   38 on scan point     1 out of    37
 All quantities printed in internal units (Hartrees-Bohrs-Radians)
 Mixed Optimization -- RFO/linear search
 Update second derivatives using D2CorX and points    1    2    3
 DE= -1.99D-03 DEPred=-1.84D-03 R= 1.08D+00
 SS=  1.41D+00  RLast= 1.96D-01 DXNew= 8.4853D-01 5.8897D-01
 Trust test= 1.08D+00 RLast= 1.96D-01 DXMaxT set to 5.89D-01
 Use linear search instead of GDIIS.
     Eigenvalues ---    0.01668   0.05000   0.05367   0.05610   0.14810
     Eigenvalues ---    0.16000   0.16000   0.16869   0.21112   0.22337
     Eigenvalues ---    0.25509   0.29539   0.35020   0.37230   0.37230
     Eigenvalues ---    0.37278   0.383551000.000001000.000001000.00000
     Eigenvalues --- 1000.000001000.000001000.000001000.000001000.00000
     Eigenvalues --- 1000.000001000.000001000.00000
 RFO step:  Lambda=-1.73986643D-04 EMin= 1.66767363D-02
 Quartic linear search produced a step of  0.10918.
 Iteration  1 RMS(Cart)=  0.01192113 RMS(Int)=  0.00015603
 Iteration  2 RMS(Cart)=  0.00012049 RMS(Int)=  0.00010165
 Iteration  3 RMS(Cart)=  0.00000001 RMS(Int)=  0.00010165
 Iteration  1 RMS(Cart)=  0.00000049 RMS(Int)=  0.00000052
 ClnCor:  largest displacement from symmetrization is 1.92D-13 for atom     8.
 Variable       Old X    -DE/DX   Delta X   Delta X   Delta X     New X
                                 (Linear)    (Quad)   (Total)
    R1        2.03818  -0.00107   0.00020  -0.00290  -0.00270   2.03548
    R2        2.03521  -0.00203   0.00012  -0.00577  -0.00565   2.02956
    R3        2.85255  -0.00074  -0.00573   0.00040  -0.00533   2.84723
    R4        3.53994   0.00088   0.00644   0.00380   0.01024   3.55018
    R5        2.03818  -0.00107   0.00020  -0.00290  -0.00270   2.03548
    R6        2.03521  -0.00203   0.00012  -0.00577  -0.00565   2.02956
    R7        3.53994   0.00088   0.00644   0.00380   0.01024   3.55018
    A1        1.93845  -0.00046   0.00326   0.00061   0.00360   1.94205
    A2        1.91589   0.00182   0.00102   0.01803   0.01890   1.93479
    A3        1.84756  -0.00193  -0.00283  -0.00661  -0.00943   1.83814
    A4        1.96368   0.00002   0.00483  -0.00673  -0.00205   1.96164
    A5        1.83993   0.00135  -0.00310  -0.00342  -0.00651   1.83342
    A6        1.95404  -0.00099  -0.00346  -0.00288  -0.00633   1.94771
    A7        1.91589   0.00182   0.00102   0.01803   0.01890   1.93479
    A8        1.96368   0.00002   0.00483  -0.00673  -0.00205   1.96164
    A9        1.95404  -0.00099  -0.00346  -0.00288  -0.00633   1.94771
   A10        1.93845  -0.00046   0.00326   0.00061   0.00360   1.94205
   A11        1.84756  -0.00193  -0.00283  -0.00661  -0.00943   1.83814
   A12        1.83993   0.00135  -0.00310  -0.00342  -0.00651   1.83342
    D1       -1.14308  -0.00087  -0.01012   0.00312  -0.00714  -1.15022
    D2        1.02503  -0.00009  -0.00212   0.01254   0.01042   1.03545
    D3        3.09355   0.00097  -0.00506   0.00156  -0.00357   3.08998
    D4        1.02503  -0.00009  -0.00212   0.01254   0.01042   1.03545
    D5       -3.09005   0.00069   0.00589   0.02196   0.02798  -3.06206
    D6       -1.02152   0.00175   0.00294   0.01098   0.01399  -1.00753
    D7        3.09355   0.00097  -0.00506   0.00156  -0.00357   3.08998
    D8       -1.02152   0.00175   0.00294   0.01098   0.01399  -1.00753
    D9        1.04700   0.00281   0.00000   0.00000   0.00000   1.04700
         Item               Value     Threshold  Converged?
 Maximum Force            0.002327     0.000450     NO 
 RMS     Force            0.001065     0.000300     NO 
 Maximum Displacement     0.029132     0.001800     NO 
 RMS     Displacement     0.011904     0.001200     NO 
 Predicted change in Energy=-1.067768D-04
 GradGradGradGradGradGradGradGradGradGradGradGradGradGradGradGradGradGrad

                          Input orientation:                          
 ---------------------------------------------------------------------
 Center     Atomic      Atomic             Coordinates (Angstroms)
 Number     Number       Type             X           Y           Z
 ---------------------------------------------------------------------
      1          6           0        0.281965    0.698586    0.978360
      2          1           0       -0.082210    1.259100    1.822996
      3          1           0        1.355204    0.706631    0.938885
      4          6           0       -0.281965   -0.698586    0.978360
      5          1           0        0.082210   -1.259100    1.822996
      6          1           0       -1.355204   -0.706631    0.938885
      7         17           0        0.269013   -1.666625   -0.534496
      8         17           0       -0.269013    1.666625   -0.534496
 ---------------------------------------------------------------------
                    Distance matrix (angstroms):
                    1          2          3          4          5
     1  C    0.000000
     2  H    1.077130   0.000000
     3  H    1.073995   1.775678   0.000000
     4  C    1.506687   2.141459   2.157896   0.000000
     5  H    2.141459   2.523562   2.503251   1.077130   0.000000
     6  H    2.157896   2.503251   3.056734   1.073995   1.775678
     7  Cl   2.807691   3.773724   2.997167   1.878673   2.399738
     8  Cl   1.878673   2.399738   2.393850   2.807691   3.773724
                    6          7          8
     6  H    0.000000
     7  Cl   2.393850   0.000000
     8  Cl   2.997167   3.376394   0.000000
 Stoichiometry    C2H4Cl2
 Framework group  C2[X(C2H4Cl2)]
 Deg. of freedom    10
 Full point group                 C2      NOp   2
 Largest Abelian subgroup         C2      NOp   2
 Largest concise Abelian subgroup C2      NOp   2
                         Standard orientation:                         
 ---------------------------------------------------------------------
 Center     Atomic      Atomic             Coordinates (Angstroms)
 Number     Number       Type             X           Y           Z
 ---------------------------------------------------------------------
      1          6           0       -0.590613   -0.467657    0.996536
      2          1           0       -0.551375   -1.134935    1.841172
      3          1           0       -1.527332    0.056237    0.957060
      4          6           0        0.590613    0.467657    0.996536
      5          1           0        0.551375    1.134935    1.841172
      6          1           0        1.527332   -0.056237    0.957060
      7         17           0        0.590613    1.581513   -0.516321
      8         17           0       -0.590613   -1.581513   -0.516321
 ---------------------------------------------------------------------
 Rotational constants (GHZ):      8.6624333      2.2882205      1.9146169
 Standard basis: 3-21G (6D, 7F)
 There are    26 symmetry adapted basis functions of A   symmetry.
 There are    26 symmetry adapted basis functions of B   symmetry.
 Integral buffers will be    262144 words long.
 Raffenetti 1 integral format.
 Two-electron integral symmetry is turned on.
    52 basis functions,    96 primitive gaussians,    52 cartesian basis functions
    25 alpha electrons       25 beta electrons
       nuclear repulsion energy       198.7509714331 Hartrees.
 NAtoms=    8 NActive=    8 NUniq=    4 SFac= 3.00D+00 NAtFMM=   80 NAOKFM=F Big=F
 One-electron integrals computed using PRISM.
 NBasis=    52 RedAO= T  NBF=    26    26
 NBsUse=    52 1.00D-06 NBFU=    26    26
 Initial guess read from the read-write file.
 B after Tr=     0.000000    0.000000    0.000000
         Rot=    1.000000    0.000000    0.000000    0.000000 Ang=   0.00 deg.
 Initial guess orbital symmetries:
       Occupied  (B) (A) (B) (A) (B) (A) (B) (A) (B) (A) (B) (A)
                 (A) (B) (A) (B) (B) (A) (A) (A) (B) (B) (A) (A)
                 (B)
       Virtual   (A) (B) (A) (B) (B) (A) (B) (A) (B) (A) (B) (A)
                 (B) (A) (B) (B) (A) (A) (B) (A) (B) (B) (A) (A)
                 (B) (A) (B)
 Harris functional with IExCor=  205 diagonalized for initial guess.
 ExpMin= 1.67D-01 ExpMax= 1.38D+03 ExpMxC= 1.38D+03 IAcc=1 IRadAn=         1 AccDes= 0.00D+00
 HarFok:  IExCor=  205 AccDes= 0.00D+00 IRadAn=         1 IDoV= 1
 ScaDFX=  1.000000  1.000000  1.000000  1.000000
 FoFCou: FMM=F IPFlag=           0 FMFlag=      100000 FMFlg1=           0
         NFxFlg=           0 DoJE=T BraDBF=F KetDBF=T FulRan=T
         Omega=  0.000000  0.000000  1.000000  0.000000  0.000000 ICntrl=     500 IOpCl=  0
         NMat0=    1 NMatS0=    1 NMatT0=    0 NMatD0=    1 NMtDS0=    0 NMtDT0=    0
         I1Cent=           4 NGrid=           0.
 Petite list used in FoFCou.
 Requested convergence on RMS density matrix=1.00D-08 within 128 cycles.
 Requested convergence on MAX density matrix=1.00D-06.
 Requested convergence on             energy=1.00D-06.
 No special actions if energy rises.
 Keep R1 ints in memory in canonical form, NReq=1777073.
 SCF Done:  E(RHF) =  -992.223351811     A.U. after   10 cycles
             Convg  =    0.1871D-08             -V/T =  2.0008
 Calling FoFJK, ICntrl=      2127 FMM=F ISym2X=1 I1Cent= 0 IOpClX= 0 NMat=1 NMatS=1 NMatT=0.
 ***** Axes restored to original set *****
 -------------------------------------------------------------------
 Center     Atomic                   Forces (Hartrees/Bohr)
 Number     Number              X              Y              Z
 -------------------------------------------------------------------
      1        6           0.004189589   -0.001088054   -0.001125306
      2        1           0.000072373   -0.000242201   -0.000213099
      3        1           0.000237495    0.000090065    0.000127508
      4        6          -0.004189589    0.001088054   -0.001125306
      5        1          -0.000072373    0.000242201   -0.000213099
      6        1          -0.000237495   -0.000090065    0.000127508
      7       17           0.002124854   -0.000709170    0.001210897
      8       17          -0.002124854    0.000709170    0.001210897
 -------------------------------------------------------------------
 Cartesian Forces:  Max     0.004189589 RMS     0.001491004

 GradGradGradGradGradGradGradGradGradGradGradGradGradGradGradGradGradGrad
 Berny optimization.
 Using GEDIIS/GDIIS optimizer.
 Internal  Forces:  Max     0.003480608 RMS     0.001047480
 Search for a local minimum.
 Step number   4 out of a maximum of   38 on scan point     1 out of    37
 All quantities printed in internal units (Hartrees-Bohrs-Radians)
 Mixed Optimization -- En-DIIS/RFO-DIIS
 Update second derivatives using D2CorX and points    1    2    3    4
 DE= -1.01D-04 DEPred=-1.07D-04 R= 9.47D-01
 SS=  1.41D+00  RLast= 5.36D-02 DXNew= 9.9052D-01 1.6089D-01
 Trust test= 9.47D-01 RLast= 5.36D-02 DXMaxT set to 5.89D-01
 Use linear search instead of GDIIS.
     Eigenvalues ---    0.01722   0.05007   0.05382   0.05523   0.14673
     Eigenvalues ---    0.16000   0.16000   0.17162   0.20624   0.22314
     Eigenvalues ---    0.25658   0.29539   0.35494   0.37111   0.37230
     Eigenvalues ---    0.37230   0.383701000.000001000.000001000.00000
     Eigenvalues --- 1000.000001000.000001000.000001000.000001000.00000
     Eigenvalues --- 1000.000001000.000001000.00000
 RFO step:  Lambda=-3.96838025D-06 EMin= 1.72223810D-02
 Quartic linear search produced a step of -0.04726.
 Iteration  1 RMS(Cart)=  0.00148324 RMS(Int)=  0.00000269
 Iteration  2 RMS(Cart)=  0.00000137 RMS(Int)=  0.00000242
 Iteration  3 RMS(Cart)=  0.00000000 RMS(Int)=  0.00000242
 Iteration  1 RMS(Cart)=  0.00000073 RMS(Int)=  0.00000076
 ClnCor:  largest displacement from symmetrization is 1.38D-13 for atom     5.
 Variable       Old X    -DE/DX   Delta X   Delta X   Delta X     New X
                                 (Linear)    (Quad)   (Total)
    R1        2.03548  -0.00032   0.00013  -0.00098  -0.00085   2.03463
    R2        2.02956   0.00023   0.00027   0.00024   0.00051   2.03006
    R3        2.84723   0.00040   0.00025   0.00130   0.00155   2.84878
    R4        3.55018   0.00001  -0.00048   0.00062   0.00014   3.55032
    R5        2.03548  -0.00032   0.00013  -0.00098  -0.00085   2.03463
    R6        2.02956   0.00023   0.00027   0.00024   0.00051   2.03006
    R7        3.55018   0.00001  -0.00048   0.00062   0.00014   3.55032
    A1        1.94205  -0.00005  -0.00017  -0.00028  -0.00045   1.94160
    A2        1.93479  -0.00072  -0.00089  -0.00006  -0.00096   1.93383
    A3        1.83814  -0.00099   0.00045  -0.00043   0.00002   1.83815
    A4        1.96164   0.00083   0.00010   0.00124   0.00134   1.96298
    A5        1.83342   0.00128   0.00031   0.00108   0.00139   1.83481
    A6        1.94771  -0.00037   0.00030  -0.00164  -0.00134   1.94637
    A7        1.93479  -0.00072  -0.00089  -0.00006  -0.00096   1.93383
    A8        1.96164   0.00083   0.00010   0.00124   0.00134   1.96298
    A9        1.94771  -0.00037   0.00030  -0.00164  -0.00134   1.94637
   A10        1.94205  -0.00005  -0.00017  -0.00028  -0.00045   1.94160
   A11        1.83814  -0.00099   0.00045  -0.00043   0.00002   1.83815
   A12        1.83342   0.00128   0.00031   0.00108   0.00139   1.83481
    D1       -1.15022  -0.00038   0.00034  -0.00321  -0.00287  -1.15309
    D2        1.03545  -0.00038  -0.00049  -0.00269  -0.00318   1.03227
    D3        3.08998   0.00155   0.00017  -0.00160  -0.00143   3.08855
    D4        1.03545  -0.00038  -0.00049  -0.00269  -0.00318   1.03227
    D5       -3.06206  -0.00038  -0.00132  -0.00218  -0.00350  -3.06557
    D6       -1.00753   0.00155  -0.00066  -0.00109  -0.00175  -1.00928
    D7        3.08998   0.00155   0.00017  -0.00160  -0.00143   3.08855
    D8       -1.00753   0.00155  -0.00066  -0.00109  -0.00175  -1.00928
    D9        1.04700   0.00348   0.00000   0.00000   0.00000   1.04700
         Item               Value     Threshold  Converged?
 Maximum Force            0.000396     0.000450     YES
 RMS     Force            0.000193     0.000300     YES
 Maximum Displacement     0.003278     0.001800     NO 
 RMS     Displacement     0.001483     0.001200     NO 
 Predicted change in Energy=-2.259026D-06
 GradGradGradGradGradGradGradGradGradGradGradGradGradGradGradGradGradGrad

                          Input orientation:                          
 ---------------------------------------------------------------------
 Center     Atomic      Atomic             Coordinates (Angstroms)
 Number     Number       Type             X           Y           Z
 ---------------------------------------------------------------------
      1          6           0        0.282709    0.698728    0.978346
      2          1           0       -0.082506    1.258949    1.822150
      3          1           0        1.356275    0.707281    0.940619
      4          6           0       -0.282709   -0.698728    0.978346
      5          1           0        0.082506   -1.258949    1.822150
      6          1           0       -1.356275   -0.707281    0.940619
      7         17           0        0.268777   -1.665274   -0.535371
      8         17           0       -0.268777    1.665274   -0.535371
 ---------------------------------------------------------------------
                    Distance matrix (angstroms):
                    1          2          3          4          5
     1  C    0.000000
     2  H    1.076678   0.000000
     3  H    1.074263   1.775254   0.000000
     4  C    1.507507   2.141164   2.159757   0.000000
     5  H    2.141164   2.523300   2.503127   1.076678   0.000000
     6  H    2.159757   2.503127   3.059233   1.074263   1.775254
     7  Cl   2.807141   3.772584   2.998369   1.878746   2.399521
     8  Cl   1.878746   2.399521   2.395223   2.807141   3.772584
                    6          7          8
     6  H    0.000000
     7  Cl   2.395223   0.000000
     8  Cl   2.998369   3.373650   0.000000
 Stoichiometry    C2H4Cl2
 Framework group  C2[X(C2H4Cl2)]
 Deg. of freedom    10
 Full point group                 C2      NOp   2
 Largest Abelian subgroup         C2      NOp   2
 Largest concise Abelian subgroup C2      NOp   2
                         Standard orientation:                         
 ---------------------------------------------------------------------
 Center     Atomic      Atomic             Coordinates (Angstroms)
 Number     Number       Type             X           Y           Z
 ---------------------------------------------------------------------
      1          6           0       -0.591825   -0.466784    0.997085
      2          1           0       -0.552247   -1.134365    1.840888
      3          1           0       -1.528523    0.057823    0.959357
      4          6           0        0.591825    0.466784    0.997085
      5          1           0        0.552247    1.134365    1.840888
      6          1           0        1.528523   -0.057823    0.959357
      7         17           0        0.591825    1.579596   -0.516633
      8         17           0       -0.591825   -1.579596   -0.516633
 ---------------------------------------------------------------------
 Rotational constants (GHZ):      8.6514477      2.2913523      1.9165489
 Standard basis: 3-21G (6D, 7F)
 There are    26 symmetry adapted basis functions of A   symmetry.
 There are    26 symmetry adapted basis functions of B   symmetry.
 Integral buffers will be    262144 words long.
 Raffenetti 1 integral format.
 Two-electron integral symmetry is turned on.
    52 basis functions,    96 primitive gaussians,    52 cartesian basis functions
    25 alpha electrons       25 beta electrons
       nuclear repulsion energy       198.7805319755 Hartrees.
 NAtoms=    8 NActive=    8 NUniq=    4 SFac= 3.00D+00 NAtFMM=   80 NAOKFM=F Big=F
 One-electron integrals computed using PRISM.
 NBasis=    52 RedAO= T  NBF=    26    26
 NBsUse=    52 1.00D-06 NBFU=    26    26
 Initial guess read from the read-write file.
 B after Tr=     0.000000    0.000000    0.000000
         Rot=    1.000000    0.000000    0.000000    0.000000 Ang=   0.00 deg.
 Initial guess orbital symmetries:
       Occupied  (B) (A) (B) (A) (B) (A) (B) (A) (B) (A) (B) (A)
                 (A) (B) (A) (B) (B) (A) (A) (A) (B) (B) (A) (A)
                 (B)
       Virtual   (A) (B) (A) (B) (B) (A) (B) (A) (B) (A) (B) (A)
                 (B) (A) (B) (B) (A) (A) (B) (A) (B) (B) (A) (A)
                 (B) (A) (B)
 Requested convergence on RMS density matrix=1.00D-08 within 128 cycles.
 Requested convergence on MAX density matrix=1.00D-06.
 Requested convergence on             energy=1.00D-06.
 No special actions if energy rises.
 Keep R1 ints in memory in canonical form, NReq=1777073.
 SCF Done:  E(RHF) =  -992.223353873     A.U. after    9 cycles
             Convg  =    0.1137D-08             -V/T =  2.0008
 Calling FoFJK, ICntrl=      2127 FMM=F ISym2X=1 I1Cent= 0 IOpClX= 0 NMat=1 NMatS=1 NMatT=0.
 ***** Axes restored to original set *****
 -------------------------------------------------------------------
 Center     Atomic                   Forces (Hartrees/Bohr)
 Number     Number              X              Y              Z
 -------------------------------------------------------------------
      1        6           0.003816991   -0.001479837   -0.001275587
      2        1          -0.000028205    0.000004394    0.000035863
      3        1          -0.000000850   -0.000053099   -0.000021723
      4        6          -0.003816991    0.001479837   -0.001275587
      5        1           0.000028205   -0.000004394    0.000035863
      6        1           0.000000850    0.000053099   -0.000021723
      7       17           0.002003329   -0.000797767    0.001261446
      8       17          -0.002003329    0.000797767    0.001261446
 -------------------------------------------------------------------
 Cartesian Forces:  Max     0.003816991 RMS     0.001432738

 GradGradGradGradGradGradGradGradGradGradGradGradGradGradGradGradGradGrad
 Berny optimization.
 Using GEDIIS/GDIIS optimizer.
 Internal  Forces:  Max     0.003351863 RMS     0.000992657
 Search for a local minimum.
 Step number   5 out of a maximum of   38 on scan point     1 out of    37
 All quantities printed in internal units (Hartrees-Bohrs-Radians)
 Mixed Optimization -- En-DIIS/RFO-DIIS
 Swaping is turned off.
 Update second derivatives using D2CorX and points    1    2    3    4    5
 DE= -2.06D-06 DEPred=-2.26D-06 R= 9.13D-01
 SS=  1.41D+00  RLast= 8.29D-03 DXNew= 9.9052D-01 2.4860D-02
 Trust test= 9.13D-01 RLast= 8.29D-03 DXMaxT set to 5.89D-01
     Eigenvalues ---    0.01823   0.05011   0.05377   0.05534   0.15062
     Eigenvalues ---    0.16000   0.16000   0.17124   0.20581   0.22314
     Eigenvalues ---    0.25484   0.29539   0.35825   0.37230   0.37230
     Eigenvalues ---    0.37595   0.384541000.000001000.000001000.00000
     Eigenvalues --- 1000.000001000.000001000.000001000.000001000.00000
     Eigenvalues --- 1000.000001000.000001000.00000
 En-DIIS/RFO-DIIS IScMMF=        0 using points:     5    4
 RFO step:  Lambda=-9.18985069D-07.
 DIIS coeffs:      0.92751      0.07249
 Iteration  1 RMS(Cart)=  0.00024570 RMS(Int)=  0.00000052
 Iteration  2 RMS(Cart)=  0.00000005 RMS(Int)=  0.00000051
 Iteration  1 RMS(Cart)=  0.00000013 RMS(Int)=  0.00000014
 ClnCor:  largest displacement from symmetrization is 4.17D-13 for atom     8.
 Variable       Old X    -DE/DX   Delta X   Delta X   Delta X     New X
                                  (DIIS)     (GDIIS)  (Total)
    R1        2.03463   0.00004   0.00006   0.00002   0.00009   2.03471
    R2        2.03006   0.00000  -0.00004   0.00006   0.00002   2.03008
    R3        2.84878  -0.00001  -0.00011   0.00015   0.00004   2.84881
    R4        3.55032  -0.00002  -0.00001  -0.00013  -0.00014   3.55018
    R5        2.03463   0.00004   0.00006   0.00002   0.00009   2.03471
    R6        2.03006   0.00000  -0.00004   0.00006   0.00002   2.03008
    R7        3.55032  -0.00002  -0.00001  -0.00013  -0.00014   3.55018
    A1        1.94160   0.00005   0.00003   0.00023   0.00026   1.94186
    A2        1.93383  -0.00061   0.00007  -0.00013  -0.00006   1.93377
    A3        1.83815  -0.00116   0.00000   0.00023   0.00023   1.83838
    A4        1.96298   0.00052  -0.00010  -0.00033  -0.00043   1.96255
    A5        1.83481   0.00116  -0.00010   0.00018   0.00008   1.83489
    A6        1.94637   0.00001   0.00010  -0.00012  -0.00003   1.94635
    A7        1.93383  -0.00061   0.00007  -0.00013  -0.00006   1.93377
    A8        1.96298   0.00052  -0.00010  -0.00033  -0.00043   1.96255
    A9        1.94637   0.00001   0.00010  -0.00012  -0.00003   1.94635
   A10        1.94160   0.00005   0.00003   0.00023   0.00026   1.94186
   A11        1.83815  -0.00116   0.00000   0.00023   0.00023   1.83838
   A12        1.83481   0.00116  -0.00010   0.00018   0.00008   1.83489
    D1       -1.15309  -0.00028   0.00021   0.00026   0.00047  -1.15262
    D2        1.03227  -0.00030   0.00023   0.00021   0.00044   1.03271
    D3        3.08855   0.00153   0.00010   0.00013   0.00024   3.08878
    D4        1.03227  -0.00030   0.00023   0.00021   0.00044   1.03271
    D5       -3.06557  -0.00031   0.00025   0.00016   0.00041  -3.06515
    D6       -1.00928   0.00152   0.00013   0.00008   0.00021  -1.00908
    D7        3.08855   0.00153   0.00010   0.00013   0.00024   3.08878
    D8       -1.00928   0.00152   0.00013   0.00008   0.00021  -1.00908
    D9        1.04700   0.00335   0.00000   0.00000   0.00000   1.04700
         Item               Value     Threshold  Converged?
 Maximum Force            0.000066     0.000450     YES
 RMS     Force            0.000027     0.000300     YES
 Maximum Displacement     0.000586     0.001800     YES
 RMS     Displacement     0.000246     0.001200     YES
 Predicted change in Energy=-8.294903D-08
 Optimization completed.
    -- Stationary point found.
                           ----------------------------
                           !   Optimized Parameters   !
                           ! (Angstroms and Degrees)  !
 --------------------------                            --------------------------
 ! Name  Definition              Value          Derivative Info.                !
 --------------------------------------------------------------------------------
 ! R1    R(1,2)                  1.0767         -DE/DX =    0.0                 !
 ! R2    R(1,3)                  1.0743         -DE/DX =    0.0                 !
 ! R3    R(1,4)                  1.5075         -DE/DX =    0.0                 !
 ! R4    R(1,8)                  1.8787         -DE/DX =    0.0                 !
 ! R5    R(4,5)                  1.0767         -DE/DX =    0.0                 !
 ! R6    R(4,6)                  1.0743         -DE/DX =    0.0                 !
 ! R7    R(4,7)                  1.8787         -DE/DX =    0.0                 !
 ! A1    A(2,1,3)              111.2456         -DE/DX =    0.0                 !
 ! A2    A(2,1,4)              110.8005         -DE/DX =   -0.0006              !
 ! A3    A(2,1,8)              105.3184         -DE/DX =   -0.0012              !
 ! A4    A(3,1,4)              112.4703         -DE/DX =    0.0005              !
 ! A5    A(3,1,8)              105.1269         -DE/DX =    0.0012              !
 ! A6    A(4,1,8)              111.519          -DE/DX =    0.0                 !
 ! A7    A(1,4,5)              110.8005         -DE/DX =   -0.0006              !
 ! A8    A(1,4,6)              112.4703         -DE/DX =    0.0005              !
 ! A9    A(1,4,7)              111.519          -DE/DX =    0.0                 !
 ! A10   A(5,4,6)              111.2456         -DE/DX =    0.0                 !
 ! A11   A(5,4,7)              105.3184         -DE/DX =   -0.0012              !
 ! A12   A(6,4,7)              105.1269         -DE/DX =    0.0012              !
 ! D1    D(2,1,4,5)            -66.067          -DE/DX =   -0.0003              !
 ! D2    D(2,1,4,6)             59.1445         -DE/DX =   -0.0003              !
 ! D3    D(2,1,4,7)            176.9608         -DE/DX =    0.0015              !
 ! D4    D(3,1,4,5)             59.1445         -DE/DX =   -0.0003              !
 ! D5    D(3,1,4,6)           -175.644          -DE/DX =   -0.0003              !
 ! D6    D(3,1,4,7)            -57.8276         -DE/DX =    0.0015              !
 ! D7    D(8,1,4,5)            176.9608         -DE/DX =    0.0015              !
 ! D8    D(8,1,4,6)            -57.8276         -DE/DX =    0.0015              !
 ! D9    D(8,1,4,7)             59.9887         -DE/DX =    0.0034              !
 --------------------------------------------------------------------------------
 Iteration  1 RMS(Cart)=  0.02424845 RMS(Int)=  0.02539293
 Iteration  2 RMS(Cart)=  0.00101348 RMS(Int)=  0.02538628
 Iteration  3 RMS(Cart)=  0.00001386 RMS(Int)=  0.02538628
 Iteration  4 RMS(Cart)=  0.00000071 RMS(Int)=  0.02538628
 Iteration  1 RMS(Cart)=  0.01455060 RMS(Int)=  0.01502992
 Iteration  2 RMS(Cart)=  0.00868818 RMS(Int)=  0.01674453
 Iteration  3 RMS(Cart)=  0.00516677 RMS(Int)=  0.01907984
 Iteration  4 RMS(Cart)=  0.00306505 RMS(Int)=  0.02077338
 Iteration  5 RMS(Cart)=  0.00181556 RMS(Int)=  0.02185737
 Iteration  6 RMS(Cart)=  0.00107449 RMS(Int)=  0.02252263
 Iteration  7 RMS(Cart)=  0.00063557 RMS(Int)=  0.02292363
 Iteration  8 RMS(Cart)=  0.00037583 RMS(Int)=  0.02316321
 Iteration  9 RMS(Cart)=  0.00022220 RMS(Int)=  0.02330568
 Iteration 10 RMS(Cart)=  0.00013135 RMS(Int)=  0.02339019
 Iteration 11 RMS(Cart)=  0.00007765 RMS(Int)=  0.02344024
 Iteration 12 RMS(Cart)=  0.00004590 RMS(Int)=  0.02346986
 Iteration 13 RMS(Cart)=  0.00002713 RMS(Int)=  0.02348738
 Iteration 14 RMS(Cart)=  0.00001603 RMS(Int)=  0.02349774
 Iteration 15 RMS(Cart)=  0.00000948 RMS(Int)=  0.02350386
 Iteration 16 RMS(Cart)=  0.00000560 RMS(Int)=  0.02350748
 Iteration 17 RMS(Cart)=  0.00000331 RMS(Int)=  0.02350962
 Iteration 18 RMS(Cart)=  0.00000196 RMS(Int)=  0.02351089
 Iteration 19 RMS(Cart)=  0.00000116 RMS(Int)=  0.02351164
 Iteration 20 RMS(Cart)=  0.00000068 RMS(Int)=  0.02351208
 GradGradGradGradGradGradGradGradGradGradGradGradGradGradGradGradGradGrad

                          Input orientation:                          
 ---------------------------------------------------------------------
 Center     Atomic      Atomic             Coordinates (Angstroms)
 Number     Number       Type             X           Y           Z
 ---------------------------------------------------------------------
      1          6           0        0.306530    0.688664    0.953824
      2          1           0       -0.062805    1.237089    1.803631
      3          1           0        1.380426    0.692577    0.925407
      4          6           0       -0.306530   -0.688664    0.953824
      5          1           0        0.062805   -1.237089    1.803631
      6          1           0       -1.380426   -0.692577    0.925407
      7         17           0        0.326908   -1.728996   -0.477117
      8         17           0       -0.326908    1.728996   -0.477117
 ---------------------------------------------------------------------
                    Distance matrix (angstroms):
                    1          2          3          4          5
     1  C    0.000000
     2  H    1.076731   0.000000
     3  H    1.074279   1.775017   0.000000
     4  C    1.507606   2.118985   2.180471   0.000000
     5  H    2.118985   2.477365   2.496200   1.076731   0.000000
     6  H    2.180471   2.496200   3.088843   1.074279   1.775017
     7  Cl   2.809464   3.761828   2.990149   1.879129   2.348091
     8  Cl   1.879129   2.348091   2.440538   2.809464   3.761828
                    6          7          8
     6  H    0.000000
     7  Cl   2.440538   0.000000
     8  Cl   2.990149   3.519259   0.000000
 Stoichiometry    C2H4Cl2
 Framework group  C2[X(C2H4Cl2)]
 Deg. of freedom    10
 Full point group                 C2      NOp   2
 Largest Abelian subgroup         C2      NOp   2
 Largest concise Abelian subgroup C2      NOp   2
                         Standard orientation:                         
 ---------------------------------------------------------------------
 Center     Atomic      Atomic             Coordinates (Angstroms)
 Number     Number       Type             X           Y           Z
 ---------------------------------------------------------------------
      1          6           0       -0.619964   -0.428793    0.940184
      2          1           0       -0.589720   -1.089296    1.789991
      3          1           0       -1.539244    0.126358    0.911767
      4          6           0        0.619964    0.428793    0.940184
      5          1           0        0.589720    1.089296    1.789991
      6          1           0        1.539244   -0.126358    0.911767
      7         17           0        0.619964    1.646797   -0.490757
      8         17           0       -0.619964   -1.646797   -0.490757
 ---------------------------------------------------------------------
 Rotational constants (GHZ):      9.2878645      2.1226778      1.8361089
 Standard basis: 3-21G (6D, 7F)
 There are    26 symmetry adapted basis functions of A   symmetry.
 There are    26 symmetry adapted basis functions of B   symmetry.
 Integral buffers will be    262144 words long.
 Raffenetti 1 integral format.
 Two-electron integral symmetry is turned on.
    52 basis functions,    96 primitive gaussians,    52 cartesian basis functions
    25 alpha electrons       25 beta electrons
       nuclear repulsion energy       196.9217166882 Hartrees.
 NAtoms=    8 NActive=    8 NUniq=    4 SFac= 3.00D+00 NAtFMM=   80 NAOKFM=F Big=F
 One-electron integrals computed using PRISM.
 NBasis=    52 RedAO= T  NBF=    26    26
 NBsUse=    52 1.00D-06 NBFU=    26    26
 Initial guess read from the read-write file.
 B after Tr=     0.000000    0.000000    0.000000
         Rot=    1.000000    0.000000    0.000000    0.000000 Ang=   0.00 deg.
 Initial guess orbital symmetries:
       Occupied  (B) (A) (B) (A) (B) (A) (B) (A) (B) (A) (B) (A)
                 (A) (B) (A) (B) (B) (A) (A) (A) (B) (B) (A) (A)
                 (B)
       Virtual   (A) (B) (A) (B) (B) (A) (B) (A) (B) (A) (B) (A)
                 (B) (A) (B) (B) (A) (A) (B) (A) (B) (B) (A) (A)
                 (B) (A) (B)
 Harris functional with IExCor=  205 diagonalized for initial guess.
 ExpMin= 1.67D-01 ExpMax= 1.38D+03 ExpMxC= 1.38D+03 IAcc=1 IRadAn=         1 AccDes= 0.00D+00
 HarFok:  IExCor=  205 AccDes= 0.00D+00 IRadAn=         1 IDoV= 1
 ScaDFX=  1.000000  1.000000  1.000000  1.000000
 FoFCou: FMM=F IPFlag=           0 FMFlag=      100000 FMFlg1=           0
         NFxFlg=           0 DoJE=T BraDBF=F KetDBF=T FulRan=T
         Omega=  0.000000  0.000000  1.000000  0.000000  0.000000 ICntrl=     500 IOpCl=  0
         NMat0=    1 NMatS0=    1 NMatT0=    0 NMatD0=    1 NMtDS0=    0 NMtDT0=    0
         I1Cent=           4 NGrid=           0.
 Petite list used in FoFCou.
 Requested convergence on RMS density matrix=1.00D-08 within 128 cycles.
 Requested convergence on MAX density matrix=1.00D-06.
 Requested convergence on             energy=1.00D-06.
 No special actions if energy rises.
 Keep R1 ints in memory in canonical form, NReq=1777073.
 SCF Done:  E(RHF) =  -992.222675446     A.U. after   10 cycles
             Convg  =    0.5050D-08             -V/T =  2.0008
 Calling FoFJK, ICntrl=      2127 FMM=F ISym2X=1 I1Cent= 0 IOpClX= 0 NMat=1 NMatS=1 NMatT=0.
 ***** Axes restored to original set *****
 -------------------------------------------------------------------
 Center     Atomic                   Forces (Hartrees/Bohr)
 Number     Number              X              Y              Z
 -------------------------------------------------------------------
      1        6          -0.010011096    0.002931874    0.004308148
      2        1           0.003384581   -0.001157579    0.003290798
      3        1          -0.001031107   -0.000758608   -0.004299806
      4        6           0.010011096   -0.002931874    0.004308148
      5        1          -0.003384581    0.001157579    0.003290798
      6        1           0.001031107    0.000758608   -0.004299806
      7       17          -0.002244053    0.001634646   -0.003299139
      8       17           0.002244053   -0.001634646   -0.003299139
 -------------------------------------------------------------------
 Cartesian Forces:  Max     0.010011096 RMS     0.003976199

 GradGradGradGradGradGradGradGradGradGradGradGradGradGradGradGradGradGrad
 Berny optimization.
 Internal  Forces:  Max     0.006492053 RMS     0.002605167
 Search for a local minimum.
 Step number   1 out of a maximum of   38 on scan point     2 out of    37
 All quantities printed in internal units (Hartrees-Bohrs-Radians)
 Mixed Optimization -- RFO/linear search
 Second derivative matrix not updated -- first step.
     Eigenvalues ---    0.01800   0.05008   0.05051   0.05794   0.15013
     Eigenvalues ---    0.16000   0.16000   0.17199   0.20382   0.22298
     Eigenvalues ---    0.25294   0.29539   0.35689   0.37230   0.37230
     Eigenvalues ---    0.37585   0.384661000.000001000.000001000.00000
     Eigenvalues --- 1000.000001000.000001000.000001000.000001000.00000
     Eigenvalues --- 1000.000001000.000001000.00000
 RFO step:  Lambda=-2.84018976D-03 EMin= 1.79977306D-02
 Linear search not attempted -- first point.
 Iteration  1 RMS(Cart)=  0.05558853 RMS(Int)=  0.00215159
 Iteration  2 RMS(Cart)=  0.00212974 RMS(Int)=  0.00049158
 Iteration  3 RMS(Cart)=  0.00000265 RMS(Int)=  0.00049158
 Iteration  4 RMS(Cart)=  0.00000000 RMS(Int)=  0.00049158
 Iteration  1 RMS(Cart)=  0.00006926 RMS(Int)=  0.00007048
 Iteration  2 RMS(Cart)=  0.00004117 RMS(Int)=  0.00007852
 Iteration  3 RMS(Cart)=  0.00002447 RMS(Int)=  0.00008951
 Iteration  4 RMS(Cart)=  0.00001455 RMS(Int)=  0.00009753
 Iteration  5 RMS(Cart)=  0.00000865 RMS(Int)=  0.00010269
 Iteration  6 RMS(Cart)=  0.00000514 RMS(Int)=  0.00010587
 Iteration  7 RMS(Cart)=  0.00000306 RMS(Int)=  0.00010780
 Iteration  8 RMS(Cart)=  0.00000182 RMS(Int)=  0.00010896
 Iteration  9 RMS(Cart)=  0.00000108 RMS(Int)=  0.00010965
 Iteration 10 RMS(Cart)=  0.00000064 RMS(Int)=  0.00011007
 ClnCor:  largest displacement from symmetrization is 1.71D-10 for atom     8.
 Variable       Old X    -DE/DX   Delta X   Delta X   Delta X     New X
                                 (Linear)    (Quad)   (Total)
    R1        2.03473   0.00085   0.00000  -0.00005  -0.00005   2.03468
    R2        2.03009  -0.00092   0.00000  -0.00010  -0.00010   2.02999
    R3        2.84896  -0.00277   0.00000  -0.00580  -0.00580   2.84317
    R4        3.55104   0.00085   0.00000   0.00690   0.00690   3.55794
    R5        2.03473   0.00085   0.00000  -0.00005  -0.00005   2.03468
    R6        2.03009  -0.00092   0.00000  -0.00010  -0.00010   2.02999
    R7        3.55104   0.00085   0.00000   0.00690   0.00690   3.55794
    A1        1.94112   0.00021   0.00000   0.00091   0.00111   1.94223
    A2        1.90270   0.00218   0.00000   0.02548   0.02552   1.92822
    A3        1.77562   0.00418   0.00000   0.05610   0.05595   1.83157
    A4        1.99306  -0.00226   0.00000  -0.02200  -0.02263   1.97043
    A5        1.89105  -0.00129   0.00000  -0.03873  -0.04015   1.85091
    A6        1.94841  -0.00234   0.00000  -0.01348  -0.01432   1.93409
    A7        1.90270   0.00218   0.00000   0.02548   0.02552   1.92822
    A8        1.99306  -0.00226   0.00000  -0.02200  -0.02263   1.97043
    A9        1.94841  -0.00234   0.00000  -0.01348  -0.01432   1.93409
   A10        1.94112   0.00021   0.00000   0.00091   0.00111   1.94223
   A11        1.77562   0.00418   0.00000   0.05610   0.05595   1.83157
   A12        1.89105  -0.00129   0.00000  -0.03873  -0.04015   1.85091
    D1       -1.16603   0.00351   0.00000   0.14890   0.14921  -1.01681
    D2        1.01679   0.00385   0.00000   0.15405   0.15385   1.17064
    D3       -3.11384  -0.00149   0.00000   0.07445   0.07461  -3.03923
    D4        1.01679   0.00385   0.00000   0.15405   0.15385   1.17064
    D5       -3.08359   0.00418   0.00000   0.15920   0.15849  -2.92509
    D6       -0.93103  -0.00115   0.00000   0.07960   0.07925  -0.85178
    D7       -3.11384  -0.00149   0.00000   0.07445   0.07461  -3.03923
[...]
           D3         -82.75646 -73.40380 -64.20493 -54.96415 -45.48746
           D4         162.73964 171.56038 179.99310-171.56143-162.72572
           D5         -69.01866 -60.08249 -51.61498 -43.20681 -34.49385
           D6          45.48510  54.95304  64.18631  73.38848  82.73726
           D7         -82.75641 -73.40360 -64.20415 -54.96085 -45.47427
           D8          45.48529  54.95353  64.18777  73.39378  82.75759
           D9         159.98905 169.98906 179.98906-170.01094-160.01129
                          16        17        18        19        20
     Eigenvalues --  -992.22452-992.22256-992.22106-992.22037-992.22060
           R1           1.07275   1.07254   1.07241   1.07242   1.07254
           R2           1.07332   1.07355   1.07386   1.07436   1.07499
           R3           1.51530   1.51924   1.52204   1.52229   1.51994
           R4           1.89352   1.89303   1.89242   1.89102   1.88950
           R5           1.07289   1.07277   1.07256   1.07248   1.07256
           R6           1.07321   1.07339   1.07375   1.07432   1.07499
           R7           1.89346   1.89291   1.89232   1.89098   1.88948
           A1         111.73830 111.55222 111.40484 111.28324 111.23870
           A2         112.25148 112.33645 112.60555 112.93112 113.17853
           A3         104.12551 104.02972 104.23926 104.70176 105.27836
           A4         113.64608 113.51312 113.08834 112.52268 111.91412
           A5         106.07760 105.72611 105.20656 104.64023 104.18997
           A6         108.28791 108.98494 109.63186 110.13471 110.45158
           A7         112.33598 112.46997 112.68156 112.95170 113.18198
           A8         113.57617 113.40311 113.02472 112.50576 111.91489
           A9         108.29135 108.99065 109.63566 110.13402 110.44696
           A10        111.74376 111.56264 111.41202 111.28568 111.23922
           A11        104.11797 104.02027 104.24236 104.71486 105.28969
           A12        106.06082 105.69389 105.17818 104.62072 104.17770
           D1          78.80536  89.53921 101.15442 113.32641 125.50009
           D2        -153.14969-142.69962-131.43405-119.64682-107.84087
           D3         -35.62263 -25.27000 -14.45417  -3.35683   7.73771
           D4        -153.17099-142.73565-131.45481-119.65316-107.84505
           D5         -25.12605 -14.97448  -4.04327   7.37361  18.81398
           D6          92.40101 102.45514 112.93661 123.66360 134.39256
           D7         -35.58332 -25.20205 -14.40268  -3.32806   7.75112
           D8          92.46163 102.55912 113.00886 123.69871 134.41016
           D9        -150.01131-140.01126-130.01126-120.01130-110.01126
                          21        22        23        24        25
     Eigenvalues --  -992.22158-992.22287-992.22392-992.22420-992.22336
           R1           1.07275   1.07304   1.07341   1.07388   1.07426
           R2           1.07570   1.07630   1.07667   1.07672   1.07672
           R3           1.51557   1.51096   1.50747   1.50624   1.50755
           R4           1.88748   1.88529   1.88293   1.88081   1.87863
           R5           1.07275   1.07305   1.07344   1.07392   1.07427
           R6           1.07571   1.07632   1.07673   1.07686   1.07672
           R7           1.88743   1.88516   1.88259   1.88030   1.87864
           A1         111.24806 111.30642 111.35179 111.34563 111.26221
           A2         113.27815 113.21843 113.02072 112.77286 112.44477
           A3         105.77904 106.05409 106.03677 105.71102 105.13396
           A4         111.41796 111.08818 110.93863 110.83307 110.79587
           A5         103.98818 104.09194 104.45078 104.93368 105.32769
           A6         110.57743 110.57500 110.58838 110.84499 111.51911
           A7         113.28594 113.23191 113.05071 112.80114 112.44714
           A8         111.42299 111.10860 110.99801 110.94381 110.79638
           A9         110.56723 110.55311 110.53666 110.77227 111.51987
           A10        111.25034 111.31378 111.37182 111.37596 111.26311
           A11        105.78361 106.05150 106.01602 105.65761 105.13287
           A12        103.97666 104.07029 104.40187 104.87342 105.32377
           D1         137.06537 147.67036 157.35003 166.49072 175.60634
           D2         -96.58344 -86.19320 -76.66774 -67.75917 -59.17967
           D3          18.52529  28.83450  38.69068  48.28906  57.79716
           D4         -96.59693 -86.23036 -76.76566 -67.90896 -59.18304
           D5          29.75425  39.90608  49.21658  57.84115  66.03095
           D6         144.86298 154.93379 164.57499 173.88938-176.99222
           D7          18.52917  28.82490  38.64842  48.19039  57.79787
           D8         144.88035 154.96134 164.63065 173.94050-176.98814
           D9        -100.01091 -90.01095 -80.01093 -70.01127 -60.01131
                          26        27        28        29        30
     Eigenvalues --  -992.22139-992.21868-992.21578-992.21324-992.21152
           R1           1.07447   1.07450   1.07438   1.07422   1.07415
           R2           1.07651   1.07607   1.07556   1.07501   1.07456
           R3           1.51115   1.51744   1.52432   1.53111   1.53551
           R4           1.87716   1.87612   1.87566   1.87562   1.87545
           R5           1.07445   1.07450   1.07437   1.07419   1.07413
           R6           1.07649   1.07607   1.07557   1.07498   1.07454
           R7           1.87724   1.87612   1.87569   1.87570   1.87540
           A1         111.09102 110.84052 110.63066 110.48293 110.38715
           A2         112.13912 111.79522 111.52295 111.27444 111.06604
           A3         104.50527 103.96243 103.61510 103.57779 103.73145
           A4         110.59819 110.51050 110.46289 110.52445 110.68991
           A5         105.61581 105.67506 105.51018 105.09151 104.59174
           A6         112.57006 113.74089 114.76538 115.52899 115.98654
           A7         112.12749 111.79307 111.51659 111.27095 111.06485
           A8         110.58489 110.51222 110.46544 110.54453 110.69044
           A9         112.57494 113.74138 114.77007 115.52439 115.98228
           A10        111.08802 110.83981 110.62852 110.49211 110.39004
           A11        104.53689 103.96056 103.62070 103.53967 103.71912
           A12        105.60988 105.67759 105.50592 105.10679 104.60648
           D1        -174.95072-165.27190-155.15259-144.62646-133.86686
           D2         -50.36671 -41.30847 -31.69345 -21.45922 -10.87174
           D3          67.50112  77.36018  87.41513  97.70890 108.07095
           D4         -50.34419 -41.30727 -31.68803 -21.48280 -10.87499
           D5          74.23982  82.65615  91.77112 101.68444 112.12013
           D6        -167.89235-158.67519-149.12030-139.14744-128.93718
           D7          67.53686  77.35660  87.42100  97.65335 108.05089
           D8        -167.87912-158.67998-149.11986-139.17941-128.95399
           D9         -50.01129 -40.01132 -30.01128 -20.01129 -10.01130
                          31        32        33        34        35
     Eigenvalues --  -992.21091-992.21152-992.21324-992.21578-992.21868
           R1           1.07424   1.07455   1.07502   1.07556   1.07607
           R2           1.07421   1.07412   1.07418   1.07435   1.07446
           R3           1.53753   1.53564   1.53106   1.52439   1.51752
           R4           1.87555   1.87539   1.87539   1.87549   1.87602
           R5           1.07422   1.07452   1.07499   1.07554   1.07606
           R6           1.07420   1.07411   1.07417   1.07435   1.07447
           R7           1.87562   1.87543   1.87547   1.87556   1.87607
           A1         110.37184 110.40066 110.50009 110.65097 110.86012
           A2         110.86746 110.69548 110.55120 110.48174 110.50632
           A3         104.11559 104.61928 105.13335 105.51900 105.69926
           A4         110.86426 111.06512 111.27459 111.52238 111.80133
           A5         104.08492 103.68412 103.49806 103.57994 103.92439
           A6         116.14074 115.98779 115.52027 114.75176 113.73335
           A7         110.85704 110.68323 110.53372 110.46407 110.49415
           A8         110.86881 111.06630 111.27612 111.52164 111.79891
           A9         116.14141 115.98788 115.52362 114.75567 113.73507
           A10        110.37085 110.40042 110.49991 110.65296 110.86178
           A11        104.11143 104.61476 105.12928 105.51954 105.70961
           A12        104.09589 103.70119 103.51670 103.59397 103.92693
           D1        -122.93681-112.09171-101.61705 -91.77050 -82.63140
           D2           0.01346  10.91264  21.55613  31.72269  41.35142
           D3         118.53261 128.95631 139.19411 149.11413 158.67593
           D4           0.01884  10.92075  21.56770  31.73337  41.35995
           D5         122.96911 133.92510 144.74089 155.22656 165.34278
           D6        -118.51174-108.03124 -97.62113 -87.38200 -77.33272
           D7         118.51961 128.94105 139.17791 149.10450 158.68173
           D8        -118.53012-108.05460 -97.64891 -87.40231 -77.33545
           D9          -0.01097   9.98907  19.98907  29.98912  39.98906
                          36        37
     Eigenvalues --  -992.22139-992.22335
           R1           1.07647   1.07671
           R2           1.07445   1.07425
           R3           1.51154   1.50761
           R4           1.87700   1.87860
           R5           1.07647   1.07674
           R6           1.07446   1.07423
           R7           1.87700   1.87855
           A1         111.08517 111.27827
           A2         110.62911 110.77794
           A3         105.62787 105.33648
           A4         112.11987 112.45929
           A5         104.47885 105.12538
           A6         112.57720 111.50636
           A7         110.63230 110.79632
           A8         112.11519 112.45207
           A9         112.57144 111.49231
           A10        111.08576 111.27706
           A11        105.64301 105.34982
           A12        104.47089 105.11565
           D1         -74.15027 -66.04646
           D2          50.45743  59.18962
           D3         167.91065 176.96161
           D4          50.45772  59.18246
           D5         175.06542-175.58146
           D6         -67.48137 -57.80947
           D7         167.92815 176.98107
           D8         -67.46415 -57.78285
           D9          49.98906  59.98914
                          Input orientation:                          
 ---------------------------------------------------------------------
 Center     Atomic      Atomic             Coordinates (Angstroms)
 Number     Number       Type             X           Y           Z
 ---------------------------------------------------------------------
      1          6           0        0.104244    0.746571    0.624588
      2          1           0        0.700564    1.049122   -0.219317
      3          1           0       -0.821479    1.290255    0.662760
      4          6           0       -0.104332   -0.746545    0.624266
      5          1           0       -0.700383   -1.049103   -0.219856
      6          1           0        0.821428   -1.290118    0.662636
      7         17           0       -1.064946   -1.307621    2.137989
      8         17           0        1.064903    1.307439    2.138423
 ---------------------------------------------------------------------
                    Distance matrix (angstroms):
                    1          2          3          4          5
     1  C    0.000000
     2  H    1.076713   0.000000
     3  H    1.074249   1.775618   0.000000
     4  C    1.507614   2.141007   2.159708   0.000000
     5  H    2.141251   2.522936   2.503253   1.076736   0.000000
     6  H    2.159608   2.502897   3.058998   1.074232   1.775610
     7  Cl   2.806616   3.772023   2.997422   1.878549   2.399827
     8  Cl   1.878599   2.399669   2.395060   2.806890   3.772401
                    6          7          8
     6  H    0.000000
     7  Cl   2.394865   0.000000
     8  Cl   2.997420   3.372654   0.000000
 Stoichiometry    C2H4Cl2
 Framework group  C1[X(C2H4Cl2)]
 Deg. of freedom    18
 Full point group                 C1      NOp   1
 Largest Abelian subgroup         C1      NOp   1
 Largest concise Abelian subgroup C1      NOp   1
                         Standard orientation:                         
 ---------------------------------------------------------------------
 Center     Atomic      Atomic             Coordinates (Angstroms)
 Number     Number       Type             X           Y           Z
 ---------------------------------------------------------------------
      1          6           0        0.662386    0.997102    0.359615
      2          1           0        1.259862    1.841099    0.059610
      3          1           0        0.549845    0.958943    1.427271
      4          6           0       -0.662638    0.997179   -0.359559
      5          1           0       -1.260245    1.841208   -0.059826
      6          1           0       -0.549972    0.958794   -1.427177
      7         17           0       -1.684371   -0.516704    0.079947
      8         17           0        1.684490   -0.516574   -0.079959
 ---------------------------------------------------------------------
 Rotational constants (GHZ):      8.6504939      2.2925712      1.9174007

 **********************************************************************

            Population analysis using the SCF density.

 **********************************************************************

 Orbital symmetries:
       Occupied  (A) (A) (A) (A) (A) (A) (A) (A) (A) (A) (A) (A)
                 (A) (A) (A) (A) (A) (A) (A) (A) (A) (A) (A) (A)
                 (A)
       Virtual   (A) (A) (A) (A) (A) (A) (A) (A) (A) (A) (A) (A)
                 (A) (A) (A) (A) (A) (A) (A) (A) (A) (A) (A) (A)
                 (A) (A) (A)
 The electronic state is 1-A.
 Alpha  occ. eigenvalues -- -104.09941-104.09918 -11.27696 -11.27671 -10.49296
 Alpha  occ. eigenvalues --  -10.49224  -7.95639  -7.95618  -7.95238  -7.95227
 Alpha  occ. eigenvalues --   -7.95218  -7.95199  -1.17300  -1.10215  -1.00148
 Alpha  occ. eigenvalues --   -0.86534  -0.69229  -0.66417  -0.61406  -0.53074
 Alpha  occ. eigenvalues --   -0.50682  -0.45379  -0.45378  -0.44297  -0.43750
 Alpha virt. eigenvalues --    0.13650   0.18343   0.24818   0.28638   0.30331
 Alpha virt. eigenvalues --    0.32212   0.37023   0.67887   0.73514   0.77179
 Alpha virt. eigenvalues --    0.77465   0.82424   0.83077   0.83873   0.92162
 Alpha virt. eigenvalues --    0.93783   0.96107   0.97480   1.08097   1.14527
 Alpha virt. eigenvalues --    1.18685   1.31017   1.31580   1.32411   1.35921
 Alpha virt. eigenvalues --    1.88874   2.18674
          Condensed to atoms (all electrons):
              1          2          3          4          5          6
     1  C    5.651513   0.356613   0.362655   0.141182  -0.037044  -0.040262
     2  H    0.356613   0.442094  -0.017388  -0.037072  -0.000116  -0.000916
     3  H    0.362655  -0.017388   0.431059  -0.040260  -0.000913   0.002460
     4  C    0.141182  -0.037072  -0.040260   5.651565   0.356630   0.362638
     5  H   -0.037044  -0.000116  -0.000913   0.356630   0.442022  -0.017389
     6  H   -0.040262  -0.000916   0.002460   0.362638  -0.017389   0.431088
     7  Cl  -0.073270   0.002600   0.001027   0.191106  -0.039239  -0.040334
     8  Cl   0.191140  -0.039263  -0.040308  -0.073217   0.002595   0.001030
              7          8
     1  C   -0.073270   0.191140
     2  H    0.002600  -0.039263
     3  H    0.001027  -0.040308
     4  C    0.191106  -0.073217
     5  H   -0.039239   0.002595
     6  H   -0.040334   0.001030
     7  Cl  17.004198  -0.003508
     8  Cl  -0.003508  17.004110
 Mulliken atomic charges:
              1
     1  C   -0.552526
     2  H    0.293447
     3  H    0.301670
     4  C   -0.552573
     5  H    0.293454
     6  H    0.301684
     7  Cl  -0.042578
     8  Cl  -0.042579
 Sum of Mulliken atomic charges =   0.00000
 Mulliken charges with hydrogens summed into heavy atoms:
              1
     1  C    0.042591
     4  C    0.042566
     7  Cl  -0.042578
     8  Cl  -0.042579
 Sum of Mulliken charges with hydrogens summed into heavy atoms =   0.00000
 Electronic spatial extent (au):  <R**2>=            591.8462
 Charge=              0.0000 electrons
 Dipole moment (field-independent basis, Debye):
    X=             -0.0003    Y=              4.1625    Z=             -0.0001  Tot=              4.1625
 Quadrupole moment (field-independent basis, Debye-Ang):
   XX=            -45.0035   YY=            -35.8762   ZZ=            -37.9653
   XY=             -0.0015   XZ=              0.9736   YZ=             -0.0001
 Traceless Quadrupole moment (field-independent basis, Debye-Ang):
   XX=             -5.3885   YY=              3.7388   ZZ=              1.6497
   XY=             -0.0015   XZ=              0.9736   YZ=             -0.0001
 Octapole moment (field-independent basis, Debye-Ang**2):
  XXX=              0.0006  YYY=              2.2899  ZZZ=              0.0005  XYY=             -0.0018
  XXY=              3.5505  XXZ=             -0.0010  XZZ=              0.0004  YZZ=              1.1915
  YYZ=             -0.0004  XYZ=              1.3072
 Hexadecapole moment (field-independent basis, Debye-Ang**3):
 XXXX=           -552.4498 YYYY=           -166.4892 ZZZZ=            -60.6142 XXXY=             -0.0088
 XXXZ=             -2.3208 YYYX=             -0.0034 YYYZ=             -0.0016 ZZZX=              1.9737
 ZZZY=              0.0014 XXYY=           -105.7752 XXZZ=           -101.5671 YYZZ=            -40.6508
 XXYZ=             -0.0004 YYXZ=             -2.2951 ZZXY=              0.0002
 N-N= 1.988060683022D+02 E-N=-2.756664879960D+03  KE= 9.913999257776D+02
 1|1|UNPC-DESKTOP-K2VF0AK|Scan|RHF|3-21G|C2H4Cl2|MELIH|05-Nov-2024|0||#
  opt=modredundant hf/3-21g geom=connectivity||Title Card Required||0,1
 |C,0.1042437804,0.7465713307,0.6245881537|H,0.7005643546,1.0491224532,
 -0.2193169823|H,-0.8214786797,1.2902553346,0.662760236|C,-0.1043315235
 ,-0.7465451114,0.6242655478|H,-0.7003834103,-1.0491031955,-0.219855926
 6|H,0.8214284528,-1.2901179988,0.6626364178|Cl,-1.0649458524,-1.307621
 3678,2.1379890444|Cl,1.0649028805,1.3074385463,2.1384234528||Version=I
 A32W-G09RevA.02|State=1-A|HF=-992.2233539,-992.2242017,-992.2239206,-9
 92.2228679,-992.2215798,-992.2206031,-992.2203655,-992.2210548,-992.22
 256,-992.2245154,-992.2264249,-992.2278047,-992.2283074,-992.2278069,-
 992.2264287,-992.2245197,-992.2225635,-992.2210573,-992.2203661,-992.2
 206017,-992.2215772,-992.2228651,-992.2239187,-992.2242016,-992.223357
 2,-992.2213915,-992.218683,-992.215783,-992.2132437,-992.2115199,-992.
 2109096,-992.2115172,-992.2132388,-992.2157766,-992.2186764,-992.22138
 64,-992.2233539|RMSD=1.137e-009,7.342e-009,2.262e-009,8.085e-009,2.254
 e-009,1.955e-009,1.995e-009,2.091e-009,2.065e-009,1.905e-009,8.709e-00
 9,5.424e-009,3.430e-009,5.728e-009,5.672e-009,7.558e-009,9.499e-009,2.
 352e-009,1.882e-009,1.794e-009,2.551e-009,4.905e-009,3.336e-009,6.439e
 -009,6.984e-009,6.169e-009,9.232e-009,4.148e-009,2.554e-009,2.691e-009
 ,2.108e-009,2.110e-009,2.991e-009,3.294e-009,8.489e-009,2.602e-009,7.2
 00e-009|PG=C01 [X(C2H4Cl2)]||@


 ... FOR AFTERWARDS A MAN FINDS PLEASURE IN HIS PAINS,
 WHEN HE HAS SUFFERED LONG AND WANDERED FAR.

                                    -- HOMER
 Job cpu time:  0 days  0 hours  1 minutes 17.0 seconds.
 File lengths (MBytes):  RWF=      5 Int=      0 D2E=      0 Chk=      3 Scr=      1
 Normal termination of Gaussian 09 at Tue Nov 05 23:32:23 2024.
