 Entering Link 1 = C:\G09W\l1.exe PID=      4520.
  
 Copyright (c) 1988,1990,1992,1993,1995,1998,2003,2009, Gaussian, Inc.
                  All Rights Reserved.
  
 This is part of the Gaussian(R) 09 program.  It is based on
 the Gaussian(R) 03 system (copyright 2003, Gaussian, Inc.),
 the Gaussian(R) 98 system (copyright 1998, Gaussian, Inc.),
 the Gaussian(R) 94 system (copyright 1995, Gaussian, Inc.),
 the Gaussian 92(TM) system (copyright 1992, Gaussian, Inc.),
 the Gaussian 90(TM) system (copyright 1990, Gaussian, Inc.),
 the Gaussian 88(TM) system (copyright 1988, Gaussian, Inc.),
 the Gaussian 86(TM) system (copyright 1986, Carnegie Mellon
 University), and the Gaussian 82(TM) system (copyright 1983,
 Carnegie Mellon University). Gaussian is a federally registered
 trademark of Gaussian, Inc.
  
 This software contains proprietary and confidential information,
 including trade secrets, belonging to Gaussian, Inc.
  
 This software is provided under written license and may be
 used, copied, transmitted, or stored only in accord with that
 written license.
  
 The following legend is applicable only to US Government
 contracts under FAR:
  
                    RESTRICTED RIGHTS LEGEND
  
 Use, reproduction and disclosure by the US Government is
 subject to restrictions as set forth in subparagraphs (a)
 and (c) of the Commercial Computer Software - Restricted
 Rights clause in FAR 52.227-19.
  
 Gaussian, Inc.
 340 Quinnipiac St., Bldg. 40, Wallingford CT 06492
  
  
 ---------------------------------------------------------------
 Warning -- This program may not be used in any manner that
 competes with the business of Gaussian, Inc. or will provide
 assistance to any competitor of Gaussian, Inc.  The licensee
 of this program is prohibited from giving any competitor of
 Gaussian, Inc. access to this program.  By using this program,
 the user acknowledges that Gaussian, Inc. is engaged in the
 business of creating and licensing software in the field of
 computational chemistry and represents and warrants to the
 licensee that it is not a competitor of Gaussian, Inc. and that
 it will not use this program in any manner prohibited above.
 ---------------------------------------------------------------
  

 Cite this work as:
 Gaussian 09, Revision A.02,
 M. J. Frisch, G. W. Trucks, H. B. Schlegel, G. E. Scuseria, 
 M. A. Robb, J. R. Cheeseman, G. Scalmani, V. Barone, B. Mennucci, 
 G. A. Petersson, H. Nakatsuji, M. Caricato, X. Li, H. P. Hratchian, 
 A. F. Izmaylov, J. Bloino, G. Zheng, J. L. Sonnenberg, M. Hada, 
 M. Ehara, K. Toyota, R. Fukuda, J. Hasegawa, M. Ishida, T. Nakajima, 
 Y. Honda, O. Kitao, H. Nakai, T. Vreven, J. A. Montgomery, Jr., 
 J. E. Peralta, F. Ogliaro, M. Bearpark, J. J. Heyd, E. Brothers, 
 K. N. Kudin, V. N. Staroverov, R. Kobayashi, J. Normand, 
 K. Raghavachari, A. Rendell, J. C. Burant, S. S. Iyengar, J. Tomasi, 
 M. Cossi, N. Rega, J. M. Millam, M. Klene, J. E. Knox, J. B. Cross, 
 V. Bakken, C. Adamo, J. Jaramillo, R. Gomperts, R. E. Stratmann, 
 O. Yazyev, A. J. Austin, R. Cammi, C. Pomelli, J. W. Ochterski, 
 R. L. Martin, K. Morokuma, V. G. Zakrzewski, G. A. Voth, 
 P. Salvador, J. J. Dannenberg, S. Dapprich, A. D. Daniels, 
 O. Farkas, J. B. Foresman, J. V. Ortiz, J. Cioslowski, 
 and D. J. Fox, Gaussian, Inc., Wallingford CT, 2009.
 
 ******************************************
 Gaussian 09:  IA32W-G09RevA.02 11-Jun-2009
                05-Nov-2024 
 ******************************************
 %chk=C:\Users\melih\Desktop\Gaussian\H2ClCCClH2\energy1.chk
 ----------------------------
 # hf/3-21g geom=connectivity
 ----------------------------
 1/38=1,57=2/1;
 2/12=2,17=6,18=5,40=1/2;
 3/5=5,11=9,16=1,25=1,30=1/1,2,3;
 4//1;
 5/5=2,38=5/2;
 6/7=2,8=2,9=2,10=2,28=1/1;
 99/5=1,9=1/99;
 -------------------
 Title Card Required
 -------------------
 Symbolic Z-matrix:
 Charge =  0 Multiplicity = 1
 C                     1.42857   0.09317   0. 
 H                     1.78523  -0.91564   0. 
 H                     1.78524   0.59757  -0.87365 
 C                    -0.11143   0.09319   0. 
 H                    -0.4681   -0.41104  -0.87375 
 H                    -0.4681   -0.41138   0.87355 
 Cl                   -0.69807   1.75254   0.00032 
 Cl                    2.01525   0.92283   1.43703 
 
                          Input orientation:                          
 ---------------------------------------------------------------------
 Center     Atomic      Atomic             Coordinates (Angstroms)
 Number     Number       Type             X           Y           Z
 ---------------------------------------------------------------------
      1          6           0        1.428571    0.093168    0.000000
      2          1           0        1.785226   -0.915642    0.000000
      3          1           0        1.785244    0.597566   -0.873652
      4          6           0       -0.111429    0.093187    0.000000
      5          1           0       -0.468101   -0.411043   -0.873749
      6          1           0       -0.468102   -0.411381    0.873554
      7         17           0       -0.698074    1.752538    0.000322
      8         17           0        2.015248    0.922832    1.437034
 ---------------------------------------------------------------------
                    Distance matrix (angstroms):
                    1          2          3          4          5
     1  C    0.000000
     2  H    1.070000   0.000000
     3  H    1.070000   1.747302   0.000000
     4  C    1.540000   2.148263   2.148263   0.000000
     5  H    2.148263   2.468915   2.468776   1.070000   0.000000
     6  H    2.148263   2.468777   3.024610   1.070000   1.747303
     7  Cl   2.697431   3.644992   2.874832   1.760000   2.344775
     8  Cl   1.760000   2.344774   2.344775   2.697431   3.644992
                    6          7          8
     6  H    0.000000
     7  Cl   2.344774   0.000000
     8  Cl   2.874832   3.180358   0.000000
 Stoichiometry    C2H4Cl2
 Framework group  C2[X(C2H4Cl2)]
 Deg. of freedom    10
 Full point group                 C2      NOp   2
 Largest Abelian subgroup         C2      NOp   2
 Largest concise Abelian subgroup C2      NOp   2
                         Standard orientation:                         
 ---------------------------------------------------------------------
 Center     Atomic      Atomic             Coordinates (Angstroms)
 Number     Number       Type             X           Y           Z
 ---------------------------------------------------------------------
      1          6           0        0.279815    0.717359    0.942290
      2          1           0       -0.060572    1.232971    1.815892
      3          1           0        1.349264    0.683046    0.942388
      4          6           0       -0.279815   -0.717359    0.942290
      5          1           0        0.060572   -1.232971    1.815892
      6          1           0       -1.349264   -0.683046    0.942388
      7         17           0        0.279815   -1.565366   -0.494825
      8         17           0       -0.279815    1.565366   -0.494825
 ---------------------------------------------------------------------
 Rotational constants (GHZ):      9.3157528      2.5426543      2.1287410
 Standard basis: 3-21G (6D, 7F)
 There are    26 symmetry adapted basis functions of A   symmetry.
 There are    26 symmetry adapted basis functions of B   symmetry.
 Integral buffers will be    262144 words long.
 Raffenetti 1 integral format.
 Two-electron integral symmetry is turned on.
    52 basis functions,    96 primitive gaussians,    52 cartesian basis functions
    25 alpha electrons       25 beta electrons
       nuclear repulsion energy       207.5596801575 Hartrees.
 NAtoms=    8 NActive=    8 NUniq=    4 SFac= 3.00D+00 NAtFMM=   80 NAOKFM=F Big=F
 One-electron integrals computed using PRISM.
 NBasis=    52 RedAO= T  NBF=    26    26
 NBsUse=    52 1.00D-06 NBFU=    26    26
 Harris functional with IExCor=  205 diagonalized for initial guess.
 ExpMin= 1.67D-01 ExpMax= 1.38D+03 ExpMxC= 1.38D+03 IAcc=1 IRadAn=         1 AccDes= 0.00D+00
 HarFok:  IExCor=  205 AccDes= 0.00D+00 IRadAn=         1 IDoV= 1
 ScaDFX=  1.000000  1.000000  1.000000  1.000000
 FoFCou: FMM=F IPFlag=           0 FMFlag=      100000 FMFlg1=           0
         NFxFlg=           0 DoJE=T BraDBF=F KetDBF=T FulRan=T
         Omega=  0.000000  0.000000  1.000000  0.000000  0.000000 ICntrl=     500 IOpCl=  0
         NMat0=    1 NMatS0=    1 NMatT0=    0 NMatD0=    1 NMtDS0=    0 NMtDT0=    0
         I1Cent=           4 NGrid=           0.
 Petite list used in FoFCou.
 Initial guess orbital symmetries:
       Occupied  (B) (A) (B) (A) (B) (A) (B) (A) (B) (A) (B) (A)
                 (A) (B) (A) (B) (B) (A) (A) (A) (B) (A) (B) (A)
                 (B)
       Virtual   (A) (B) (A) (B) (B) (B) (A) (A) (B) (B) (A) (B)
                 (A) (A) (B) (B) (A) (A) (B) (A) (B) (A) (B) (A)
                 (B) (A) (B)
 The electronic state of the initial guess is 1-A.
 Requested convergence on RMS density matrix=1.00D-08 within 128 cycles.
 Requested convergence on MAX density matrix=1.00D-06.
 Requested convergence on             energy=1.00D-06.
 No special actions if energy rises.
 Keep R1 ints in memory in canonical form, NReq=1777073.
 SCF Done:  E(RHF) =  -992.211391535     A.U. after   11 cycles
             Convg  =    0.1489D-08             -V/T =  2.0004

 **********************************************************************

            Population analysis using the SCF density.

 **********************************************************************

 Orbital symmetries:
       Occupied  (B) (A) (B) (A) (B) (A) (B) (A) (B) (A) (B) (A)
                 (A) (B) (A) (B) (B) (A) (A) (A) (B) (B) (A) (A)
                 (B)
       Virtual   (A) (B) (A) (B) (B) (A) (B) (A) (B) (B) (A) (A)
                 (B) (A) (B) (B) (A) (A) (B) (A) (B) (B) (A) (A)
                 (B) (A) (B)
 The electronic state is 1-A.
 Alpha  occ. eigenvalues -- -104.09967-104.09937 -11.26045 -11.26029 -10.49657
 Alpha  occ. eigenvalues --  -10.49560  -7.96011  -7.95991  -7.95548  -7.95537
 Alpha  occ. eigenvalues --   -7.95525  -7.95510  -1.20194  -1.13011  -0.98753
 Alpha  occ. eigenvalues --   -0.85916  -0.69011  -0.67038  -0.60543  -0.55287
 Alpha  occ. eigenvalues --   -0.53475  -0.45729  -0.45418  -0.43742  -0.43531
 Alpha virt. eigenvalues --    0.18368   0.22749   0.26173   0.29306   0.31504
 Alpha virt. eigenvalues --    0.32165   0.35348   0.67495   0.73676   0.78088
 Alpha virt. eigenvalues --    0.78746   0.81781   0.82511   0.83216   0.92950
 Alpha virt. eigenvalues --    0.94285   0.97139   0.97881   1.08123   1.12455
 Alpha virt. eigenvalues --    1.18606   1.32043   1.32527   1.33479   1.38410
 Alpha virt. eigenvalues --    1.93745   2.25189
          Condensed to atoms (all electrons):
              1          2          3          4          5          6
     1  C    5.794202   0.358164   0.361628   0.140691  -0.035185  -0.043329
     2  H    0.358164   0.450958  -0.020828  -0.035185  -0.000072  -0.001020
     3  H    0.361628  -0.020828   0.447868  -0.043329  -0.001020   0.002903
     4  C    0.140691  -0.035185  -0.043329   5.794202   0.358164   0.361628
     5  H   -0.035185  -0.000072  -0.001020   0.358164   0.450958  -0.020828
     6  H   -0.043329  -0.001020   0.002903   0.361628  -0.020828   0.447868
     7  Cl  -0.097764   0.003497   0.001819   0.147422  -0.043306  -0.043816
     8  Cl   0.147422  -0.043306  -0.043816  -0.097764   0.003497   0.001819
              7          8
     1  C   -0.097764   0.147422
     2  H    0.003497  -0.043306
     3  H    0.001819  -0.043816
     4  C    0.147422  -0.097764
     5  H   -0.043306   0.003497
     6  H   -0.043816   0.001819
     7  Cl  16.996186  -0.007302
     8  Cl  -0.007302  16.996186
 Mulliken atomic charges:
              1
     1  C   -0.625830
     2  H    0.287792
     3  H    0.294775
     4  C   -0.625830
     5  H    0.287792
     6  H    0.294775
     7  Cl   0.043262
     8  Cl   0.043262
 Sum of Mulliken atomic charges =   0.00000
 Mulliken charges with hydrogens summed into heavy atoms:
              1
     1  C   -0.043262
     4  C   -0.043262
     7  Cl   0.043262
     8  Cl   0.043262
 Sum of Mulliken charges with hydrogens summed into heavy atoms =   0.00000
 Electronic spatial extent (au):  <R**2>=            545.2637
 Charge=              0.0000 electrons
 Dipole moment (field-independent basis, Debye):
    X=              0.0000    Y=              0.0000    Z=              3.6296  Tot=              3.6296
 Quadrupole moment (field-independent basis, Debye-Ang):
   XX=            -38.2654   YY=            -43.7545   ZZ=            -36.2685
   XY=              1.5530   XZ=              0.0000   YZ=              0.0000
 Traceless Quadrupole moment (field-independent basis, Debye-Ang):
   XX=              1.1641   YY=             -4.3250   ZZ=              3.1610
   XY=              1.5530   XZ=              0.0000   YZ=              0.0000
 Octapole moment (field-independent basis, Debye-Ang**2):
  XXX=              0.0000  YYY=              0.0000  ZZZ=              1.0109  XYY=              0.0000
  XXY=              0.0000  XXZ=              0.5205  XZZ=              0.0000  YZZ=              0.0000
  YYZ=              3.2014  XYZ=              0.9741
 Hexadecapole moment (field-independent basis, Debye-Ang**3):
 XXXX=            -68.8066 YYYY=           -492.3002 ZZZZ=           -156.3261 XXXY=             27.3431
 XXXZ=              0.0000 YYYX=             24.4989 YYYZ=              0.0000 ZZZX=              0.0000
 ZZZY=              0.0000 XXYY=            -91.9125 XXZZ=            -39.1558 YYZZ=            -96.6154
 XXYZ=              0.0000 YYXZ=              0.0000 ZZXY=              4.5988
 N-N= 2.075596801575D+02 E-N=-2.774443154566D+03  KE= 9.918403127849D+02
 Symmetry A    KE= 4.969024867227D+02
 Symmetry B    KE= 4.949378260622D+02
 1|1|UNPC-DESKTOP-K2VF0AK|SP|RHF|3-21G|C2H4Cl2|MELIH|05-Nov-2024|0||# h
 f/3-21g geom=connectivity||Title Card Required||0,1|C,0,1.42857147,0.0
 931677,0.|H,0,1.78522589,-0.9156423,0.|H,0,1.78524431,0.59756589,-0.87
 36515|C,0,-0.11142853,0.09318668,0.|H,0,-0.46810109,-0.41104267,-0.873
 74908|H,0,-0.4681016,-0.41138098,0.87355355|Cl,0,-0.69807423,1.7525379
 7,0.00032168|Cl,0,2.01524829,0.92283201,1.43703425||Version=IA32W-G09R
 evA.02|State=1-A|HF=-992.2113915|RMSD=1.489e-009|Dipole=-0.0000153,-1.
 236621,-0.7141234|Quadrupole=-1.8948215,1.6484953,0.2463262,1.1158829,
 -1.9322419,1.2149062|PG=C02 [X(C2H4Cl2)]||@


 I FIND THAT THE THREE TRULY GREAT TIMES FOR THINKING THOUGHTS
 ARE WHEN I AM STANDING IN THE SHOWER, SITTING ON THE JOHN, OR WALKING.

                                    -- COLIN FLETCHER
 Job cpu time:  0 days  0 hours  0 minutes  0.0 seconds.
 File lengths (MBytes):  RWF=      5 Int=      0 D2E=      0 Chk=      1 Scr=      1
 Normal termination of Gaussian 09 at Tue Nov 05 23:28:23 2024.
